<?xml version="1.0" ?> 
<!-- 
# vtk DataFile Version 3.0
-->
<VTKFile type="UnstructuredGrid" version="0.1" compressor="vtkZLibDataCompressor" byte_order="LittleEndian">
<UnstructuredGrid>
<FieldData>
<DataArray type="Float32" Name="TIME" NumberOfTuples="1" format="ascii">223.214285715</DataArray>
</FieldData>
<Piece NumberOfPoints="20" NumberOfCells="10" >
  <Points>
    <DataArray type="Float64" NumberOfComponents="3" format="ascii">
0.000000000000000e+00 0.000000000000000e+00 0.000000000000000e+00 
1.000000000000000e-04 0.000000000000000e+00 0.000000000000000e+00 
1.000000000000000e-04 0.000000000000000e+00 0.000000000000000e+00 
2.000000000000000e-04 0.000000000000000e+00 0.000000000000000e+00 
2.000000000000000e-04 0.000000000000000e+00 0.000000000000000e+00 
3.000000000000000e-04 0.000000000000000e+00 0.000000000000000e+00 
3.000000000000000e-04 0.000000000000000e+00 0.000000000000000e+00 
4.000000000000000e-04 0.000000000000000e+00 0.000000000000000e+00 
4.000000000000000e-04 0.000000000000000e+00 0.000000000000000e+00 
5.000000000000000e-04 0.000000000000000e+00 0.000000000000000e+00 
5.000000000000000e-04 0.000000000000000e+00 0.000000000000000e+00 
6.000000000000001e-04 0.000000000000000e+00 0.000000000000000e+00 
6.000000000000001e-04 0.000000000000000e+00 0.000000000000000e+00 
7.000000000000000e-04 0.000000000000000e+00 0.000000000000000e+00 
7.000000000000000e-04 0.000000000000000e+00 0.000000000000000e+00 
8.000000000000000e-04 0.000000000000000e+00 0.000000000000000e+00 
8.000000000000000e-04 0.000000000000000e+00 0.000000000000000e+00 
9.000000000000001e-04 0.000000000000000e+00 0.000000000000000e+00 
9.000000000000001e-04 0.000000000000000e+00 0.000000000000000e+00 
1.000000000000000e-03 0.000000000000000e+00 0.000000000000000e+00 
    </DataArray>
  </Points>

  <Cells>
    <DataArray type="Int32" Name="connectivity" format="ascii">
0 1 2 3 4 5 6 7 8 9 10 11 12 13 14 15 16 17 18 19     </DataArray>
    <DataArray type="Int32" Name="offsets" format="ascii">
2 4 6 8 10 12 14 16 18 20     </DataArray>
    <DataArray type="UInt8" Name="types" format="ascii">
3 3 3 3 3 3 3 3 3 3     </DataArray>
  </Cells>

  <PointData>
    <DataArray type="Float64" Name="phi_1" format="ascii">
2.306999877035109e+03 
2.388939252667953e+03 
2.388939252667953e+03 
2.637449122572963e+03 
2.637449122572963e+03 
3.059989697835781e+03 
3.059989697835781e+03 
3.667081520634089e+03 
3.667081520634089e+03 
4.469549688602836e+03 
4.469549688602836e+03 
5.474860361555116e+03 
5.474860361555116e+03 
6.681084670230808e+03 
6.681084670230808e+03 
8.073778140191497e+03 
8.073778140191497e+03 
9.605977559154926e+03 
9.605977559154926e+03 
1.125156268823250e+04 
    </DataArray>
    <DataArray type="Float64" Name="phiAnalytic_1" format="ascii">
2.326949302264753e+03 
2.429671720899951e+03 
2.429671720899951e+03 
2.736866374408096e+03 
2.736866374408096e+03 
3.245301688560053e+03 
3.245301688560053e+03 
3.948626199997023e+03 
3.948626199997023e+03 
4.836184384488274e+03 
4.836184384488274e+03 
5.891828297417857e+03 
5.891828297417857e+03 
7.093069568751343e+03 
7.093069568751343e+03 
8.410865121967687e+03 
8.410865121967687e+03 
9.810211628943516e+03 
9.810211628943516e+03 
1.125156268823250e+04 
    </DataArray>
    <DataArray type="Float64" Name="phi_2" format="ascii">
-1.789279156598697e+05 
-1.788404024180270e+05 
-1.788404024180270e+05 
-1.785927155155026e+05 
-1.785927155155026e+05 
-1.782218432385192e+05 
-1.782218432385192e+05 
-1.777714245658565e+05 
-1.777714245658565e+05 
-1.772800440018100e+05 
-1.772800440018100e+05 
-1.767771824925728e+05 
-1.767771824925728e+05 
-1.762840746856223e+05 
-1.762840746856223e+05 
-1.758161931909994e+05 
-1.758161931909994e+05 
-1.753850480733863e+05 
-1.753850480733863e+05 
-1.750000000000000e+05 
    </DataArray>
    <DataArray type="Float64" Name="phiAnalytic_2" format="ascii">
-1.789064923015613e+05 
-1.787994121337784e+05 
-1.787994121337784e+05 
-1.785042902452814e+05 
-1.785042902452814e+05 
-1.780819125856589e+05 
-1.780819125856589e+05 
-1.775956689063134e+05 
-1.775956689063134e+05 
-1.770930676640157e+05 
-1.770930676640157e+05 
-1.766036488846419e+05 
-1.766036488846419e+05 
-1.761436994551560e+05 
-1.761436994551560e+05 
-1.757212934439957e+05 
-1.757212934439957e+05 
-1.753398044011617e+05 
-1.753398044011617e+05 
-1.750000000000000e+05 
    </DataArray>
  </PointData>
  <CellData>
    <DataArray type="Float64" Name="Owner" format="ascii">
0.000000000000000e+00 
0.000000000000000e+00 
0.000000000000000e+00 
0.000000000000000e+00 
0.000000000000000e+00 
0.000000000000000e+00 
0.000000000000000e+00 
0.000000000000000e+00 
0.000000000000000e+00 
0.000000000000000e+00 
0.000000000000000e+00 
0.000000000000000e+00 
0.000000000000000e+00 
0.000000000000000e+00 
0.000000000000000e+00 
0.000000000000000e+00 
0.000000000000000e+00 
0.000000000000000e+00 
0.000000000000000e+00 
0.000000000000000e+00 
    </DataArray>
  </CellData>
</Piece>
</UnstructuredGrid>
</VTKFile>
