<?xml version="1.0" ?> 
<!-- 
# vtk DataFile Version 3.0
-->
<VTKFile type="UnstructuredGrid" version="0.1" compressor="vtkZLibDataCompressor" byte_order="LittleEndian">
<UnstructuredGrid>
<FieldData>
<DataArray type="Float32" Name="TIME" NumberOfTuples="1" format="ascii">520.833333335</DataArray>
</FieldData>
<Piece NumberOfPoints="20" NumberOfCells="10" >
  <Points>
    <DataArray type="Float64" NumberOfComponents="3" format="ascii">
0.000000000000000e+00 0.000000000000000e+00 0.000000000000000e+00 
1.000000000000000e-04 0.000000000000000e+00 0.000000000000000e+00 
1.000000000000000e-04 0.000000000000000e+00 0.000000000000000e+00 
2.000000000000000e-04 0.000000000000000e+00 0.000000000000000e+00 
2.000000000000000e-04 0.000000000000000e+00 0.000000000000000e+00 
3.000000000000000e-04 0.000000000000000e+00 0.000000000000000e+00 
3.000000000000000e-04 0.000000000000000e+00 0.000000000000000e+00 
4.000000000000000e-04 0.000000000000000e+00 0.000000000000000e+00 
4.000000000000000e-04 0.000000000000000e+00 0.000000000000000e+00 
5.000000000000000e-04 0.000000000000000e+00 0.000000000000000e+00 
5.000000000000000e-04 0.000000000000000e+00 0.000000000000000e+00 
6.000000000000001e-04 0.000000000000000e+00 0.000000000000000e+00 
6.000000000000001e-04 0.000000000000000e+00 0.000000000000000e+00 
7.000000000000000e-04 0.000000000000000e+00 0.000000000000000e+00 
7.000000000000000e-04 0.000000000000000e+00 0.000000000000000e+00 
8.000000000000000e-04 0.000000000000000e+00 0.000000000000000e+00 
8.000000000000000e-04 0.000000000000000e+00 0.000000000000000e+00 
9.000000000000001e-04 0.000000000000000e+00 0.000000000000000e+00 
9.000000000000001e-04 0.000000000000000e+00 0.000000000000000e+00 
1.000000000000000e-03 0.000000000000000e+00 0.000000000000000e+00 
    </DataArray>
  </Points>

  <Cells>
    <DataArray type="Int32" Name="connectivity" format="ascii">
0 1 2 3 4 5 6 7 8 9 10 11 12 13 14 15 16 17 18 19     </DataArray>
    <DataArray type="Int32" Name="offsets" format="ascii">
2 4 6 8 10 12 14 16 18 20     </DataArray>
    <DataArray type="UInt8" Name="types" format="ascii">
3 3 3 3 3 3 3 3 3 3     </DataArray>
  </Cells>

  <PointData>
    <DataArray type="Float64" Name="phi_1" format="ascii">
6.045076364387743e+03 
6.107908723247102e+03 
6.107908723247102e+03 
6.295119842445624e+03 
6.295119842445624e+03 
6.602822537740604e+03 
6.602822537740604e+03 
7.024467387034098e+03 
7.024467387034098e+03 
7.550765679735113e+03 
7.550765679735113e+03 
8.169757383240460e+03 
8.169757383240460e+03 
8.866653334456163e+03 
8.866653334456163e+03 
9.625102489506589e+03 
9.625102489506589e+03 
1.042360920776104e+04 
1.042360920776104e+04 
1.125156268823250e+04 
    </DataArray>
    <DataArray type="Float64" Name="phiAnalytic_1" format="ascii">
6.395797670551084e+03 
6.455552399649662e+03 
6.455552399649662e+03 
6.633351286354076e+03 
6.633351286354076e+03 
6.924833188637874e+03 
6.924833188637874e+03 
7.322844834302116e+03 
7.322844834302116e+03 
7.817611731036364e+03 
7.817611731036364e+03 
8.396973206374894e+03 
8.396973206374894e+03 
9.046677019636147e+03 
9.046677019636147e+03 
9.750727343129220e+03 
9.750727343129220e+03 
1.049177818860169e+04 
1.049177818860169e+04 
1.125156268823250e+04 
    </DataArray>
    <DataArray type="Float64" Name="phi_2" format="ascii">
-1.765400055780238e+05 
-1.765142857952552e+05 
-1.765142857952552e+05 
-1.764392133107287e+05 
-1.764392133107287e+05 
-1.763206021264047e+05 
-1.763206021264047e+05 
-1.761668439061114e+05 
-1.761668439061114e+05 
-1.759874973338899e+05 
-1.759874973338899e+05 
-1.757920457508237e+05 
-1.757920457508237e+05 
-1.755890523043501e+05 
-1.755890523043501e+05 
-1.753857459533739e+05 
-1.753857459533739e+05 
-1.751878966750125e+05 
-1.751878966750125e+05 
-1.750000000000000e+05 
    </DataArray>
    <DataArray type="Float64" Name="phiAnalytic_2" format="ascii">
-1.764002002923751e+05 
-1.763771486704914e+05 
-1.763771486704914e+05 
-1.763098002663296e+05 
-1.763098002663296e+05 
-1.762032015909233e+05 
-1.762032015909233e+05 
-1.760646729651382e+05 
-1.760646729651382e+05 
-1.759026072477764e+05 
-1.759026072477764e+05 
-1.757253910028698e+05 
-1.757253910028698e+05 
-1.755406540304110e+05 
-1.755406540304110e+05 
-1.753548804911753e+05 
-1.753548804911753e+05 
-1.751733068947918e+05 
-1.751733068947918e+05 
-1.750000000000000e+05 
    </DataArray>
  </PointData>
  <CellData>
    <DataArray type="Float64" Name="Owner" format="ascii">
0.000000000000000e+00 
0.000000000000000e+00 
0.000000000000000e+00 
0.000000000000000e+00 
0.000000000000000e+00 
0.000000000000000e+00 
0.000000000000000e+00 
0.000000000000000e+00 
0.000000000000000e+00 
0.000000000000000e+00 
0.000000000000000e+00 
0.000000000000000e+00 
0.000000000000000e+00 
0.000000000000000e+00 
0.000000000000000e+00 
0.000000000000000e+00 
0.000000000000000e+00 
0.000000000000000e+00 
0.000000000000000e+00 
0.000000000000000e+00 
    </DataArray>
  </CellData>
</Piece>
</UnstructuredGrid>
</VTKFile>
