<?xml version="1.0" ?> 
<!-- 
# vtk DataFile Version 3.0
-->
<VTKFile type="UnstructuredGrid" version="0.1" compressor="vtkZLibDataCompressor" byte_order="LittleEndian">
<UnstructuredGrid>
<FieldData>
<DataArray type="Float32" Name="TIME" NumberOfTuples="1" format="ascii">1116.071428575</DataArray>
</FieldData>
<Piece NumberOfPoints="20" NumberOfCells="10" >
  <Points>
    <DataArray type="Float64" NumberOfComponents="3" format="ascii">
0.000000000000000e+00 0.000000000000000e+00 0.000000000000000e+00 
1.000000000000000e-04 0.000000000000000e+00 0.000000000000000e+00 
1.000000000000000e-04 0.000000000000000e+00 0.000000000000000e+00 
2.000000000000000e-04 0.000000000000000e+00 0.000000000000000e+00 
2.000000000000000e-04 0.000000000000000e+00 0.000000000000000e+00 
3.000000000000000e-04 0.000000000000000e+00 0.000000000000000e+00 
3.000000000000000e-04 0.000000000000000e+00 0.000000000000000e+00 
4.000000000000000e-04 0.000000000000000e+00 0.000000000000000e+00 
4.000000000000000e-04 0.000000000000000e+00 0.000000000000000e+00 
5.000000000000000e-04 0.000000000000000e+00 0.000000000000000e+00 
5.000000000000000e-04 0.000000000000000e+00 0.000000000000000e+00 
6.000000000000001e-04 0.000000000000000e+00 0.000000000000000e+00 
6.000000000000001e-04 0.000000000000000e+00 0.000000000000000e+00 
7.000000000000000e-04 0.000000000000000e+00 0.000000000000000e+00 
7.000000000000000e-04 0.000000000000000e+00 0.000000000000000e+00 
8.000000000000000e-04 0.000000000000000e+00 0.000000000000000e+00 
8.000000000000000e-04 0.000000000000000e+00 0.000000000000000e+00 
9.000000000000001e-04 0.000000000000000e+00 0.000000000000000e+00 
9.000000000000001e-04 0.000000000000000e+00 0.000000000000000e+00 
1.000000000000000e-03 0.000000000000000e+00 0.000000000000000e+00 
    </DataArray>
  </Points>

  <Cells>
    <DataArray type="Int32" Name="connectivity" format="ascii">
0 1 2 3 4 5 6 7 8 9 10 11 12 13 14 15 16 17 18 19     </DataArray>
    <DataArray type="Int32" Name="offsets" format="ascii">
2 4 6 8 10 12 14 16 18 20     </DataArray>
    <DataArray type="UInt8" Name="types" format="ascii">
3 3 3 3 3 3 3 3 3 3     </DataArray>
  </Cells>

  <PointData>
    <DataArray type="Float64" Name="phi_1" format="ascii">
9.597688018370603e+03 
9.618026945759979e+03 
9.618026945759979e+03 
9.678545802540972e+03 
9.678545802540972e+03 
9.777762454255189e+03 
9.777762454255189e+03 
9.913246426246455e+03 
9.913246426246455e+03 
1.008167489817401e+04 
1.008167489817401e+04 
1.027892049699357e+04 
1.027892049699357e+04 
1.050012121403585e+04 
1.050012121403585e+04 
1.073991115051270e+04 
1.073991115051270e+04 
1.099212727062206e+04 
1.099212727062206e+04 
1.125156268823250e+04 
    </DataArray>
    <DataArray type="Float64" Name="phiAnalytic_1" format="ascii">
9.837417395270233e+03 
9.854827870047497e+03 
9.854827870047497e+03 
9.906630590799487e+03 
9.906630590799487e+03 
9.991550002871822e+03 
9.991550002871822e+03 
1.010749510886910e+04 
1.010749510886910e+04 
1.025161095587167e+04 
1.025161095587167e+04 
1.042034893376659e+04 
1.042034893376659e+04 
1.060955415373312e+04 
1.060955415373312e+04 
1.081456775535023e+04 
1.081456775535023e+04 
1.103034162319537e+04 
1.103034162319537e+04 
1.125156268823250e+04 
    </DataArray>
    <DataArray type="Float64" Name="phi_2" format="ascii">
-1.753940948312264e+05 
-1.753888437085160e+05 
-1.753888437085160e+05 
-1.753732847339071e+05 
-1.753732847339071e+05 
-1.753479873544996e+05 
-1.753479873544996e+05 
-1.753138568480898e+05 
-1.753138568480898e+05 
-1.752720750608785e+05 
-1.752720750608785e+05 
-1.752240287881844e+05 
-1.752240287881844e+05 
-1.751712339974722e+05 
-1.751712339974722e+05 
-1.751152635259517e+05 
-1.751152635259517e+05 
-1.750576826941590e+05 
-1.750576826941590e+05 
-1.750000000000000e+05 
    </DataArray>
    <DataArray type="Float64" Name="phiAnalytic_2" format="ascii">
-1.753329396322658e+05 
-1.753285564420220e+05 
-1.753285564420220e+05 
-1.753155604510611e+05 
-1.753155604510611e+05 
-1.752944026233300e+05 
-1.752944026233300e+05 
-1.752658032416331e+05 
-1.752658032416331e+05 
-1.752307090601887e+05 
-1.752307090601887e+05 
-1.751902406948529e+05 
-1.751902406948529e+05 
-1.751456358132864e+05 
-1.751456358132864e+05 
-1.750981932953268e+05 
-1.750981932953268e+05 
-1.750492224553520e+05 
-1.750492224553520e+05 
-1.750000000000000e+05 
    </DataArray>
  </PointData>
  <CellData>
    <DataArray type="Float64" Name="Owner" format="ascii">
0.000000000000000e+00 
0.000000000000000e+00 
0.000000000000000e+00 
0.000000000000000e+00 
0.000000000000000e+00 
0.000000000000000e+00 
0.000000000000000e+00 
0.000000000000000e+00 
0.000000000000000e+00 
0.000000000000000e+00 
0.000000000000000e+00 
0.000000000000000e+00 
0.000000000000000e+00 
0.000000000000000e+00 
0.000000000000000e+00 
0.000000000000000e+00 
0.000000000000000e+00 
0.000000000000000e+00 
0.000000000000000e+00 
0.000000000000000e+00 
    </DataArray>
  </CellData>
</Piece>
</UnstructuredGrid>
</VTKFile>
