<?xml version="1.0" ?> 
<!-- 
# vtk DataFile Version 3.0
-->
<VTKFile type="UnstructuredGrid" version="0.1" compressor="vtkZLibDataCompressor" byte_order="LittleEndian">
<UnstructuredGrid>
<FieldData>
<DataArray type="Float32" Name="TIME" NumberOfTuples="1" format="ascii">669.642857145</DataArray>
</FieldData>
<Piece NumberOfPoints="64" NumberOfCells="32" >
  <Points>
    <DataArray type="Float64" NumberOfComponents="3" format="ascii">
0.000000000000000e+00 0.000000000000000e+00 0.000000000000000e+00 
3.125000000000000e-05 0.000000000000000e+00 0.000000000000000e+00 
3.125000000000000e-05 0.000000000000000e+00 0.000000000000000e+00 
6.250000000000000e-05 0.000000000000000e+00 0.000000000000000e+00 
6.250000000000000e-05 0.000000000000000e+00 0.000000000000000e+00 
9.375000000000000e-05 0.000000000000000e+00 0.000000000000000e+00 
9.375000000000000e-05 0.000000000000000e+00 0.000000000000000e+00 
1.250000000000000e-04 0.000000000000000e+00 0.000000000000000e+00 
1.250000000000000e-04 0.000000000000000e+00 0.000000000000000e+00 
1.562500000000000e-04 0.000000000000000e+00 0.000000000000000e+00 
1.562500000000000e-04 0.000000000000000e+00 0.000000000000000e+00 
1.875000000000000e-04 0.000000000000000e+00 0.000000000000000e+00 
1.875000000000000e-04 0.000000000000000e+00 0.000000000000000e+00 
2.187500000000000e-04 0.000000000000000e+00 0.000000000000000e+00 
2.187500000000000e-04 0.000000000000000e+00 0.000000000000000e+00 
2.500000000000000e-04 0.000000000000000e+00 0.000000000000000e+00 
2.500000000000000e-04 0.000000000000000e+00 0.000000000000000e+00 
2.812500000000000e-04 0.000000000000000e+00 0.000000000000000e+00 
2.812500000000000e-04 0.000000000000000e+00 0.000000000000000e+00 
3.125000000000000e-04 0.000000000000000e+00 0.000000000000000e+00 
3.125000000000000e-04 0.000000000000000e+00 0.000000000000000e+00 
3.437500000000000e-04 0.000000000000000e+00 0.000000000000000e+00 
3.437500000000000e-04 0.000000000000000e+00 0.000000000000000e+00 
3.750000000000000e-04 0.000000000000000e+00 0.000000000000000e+00 
3.750000000000000e-04 0.000000000000000e+00 0.000000000000000e+00 
4.062500000000000e-04 0.000000000000000e+00 0.000000000000000e+00 
4.062500000000000e-04 0.000000000000000e+00 0.000000000000000e+00 
4.375000000000000e-04 0.000000000000000e+00 0.000000000000000e+00 
4.375000000000000e-04 0.000000000000000e+00 0.000000000000000e+00 
4.687500000000000e-04 0.000000000000000e+00 0.000000000000000e+00 
4.687500000000000e-04 0.000000000000000e+00 0.000000000000000e+00 
5.000000000000000e-04 0.000000000000000e+00 0.000000000000000e+00 
5.000000000000000e-04 0.000000000000000e+00 0.000000000000000e+00 
5.312500000000000e-04 0.000000000000000e+00 0.000000000000000e+00 
5.312500000000000e-04 0.000000000000000e+00 0.000000000000000e+00 
5.625000000000001e-04 0.000000000000000e+00 0.000000000000000e+00 
5.625000000000001e-04 0.000000000000000e+00 0.000000000000000e+00 
5.937500000000000e-04 0.000000000000000e+00 0.000000000000000e+00 
5.937500000000000e-04 0.000000000000000e+00 0.000000000000000e+00 
6.250000000000000e-04 0.000000000000000e+00 0.000000000000000e+00 
6.250000000000000e-04 0.000000000000000e+00 0.000000000000000e+00 
6.562500000000000e-04 0.000000000000000e+00 0.000000000000000e+00 
6.562500000000000e-04 0.000000000000000e+00 0.000000000000000e+00 
6.875000000000000e-04 0.000000000000000e+00 0.000000000000000e+00 
6.875000000000000e-04 0.000000000000000e+00 0.000000000000000e+00 
7.187500000000000e-04 0.000000000000000e+00 0.000000000000000e+00 
7.187500000000000e-04 0.000000000000000e+00 0.000000000000000e+00 
7.500000000000000e-04 0.000000000000000e+00 0.000000000000000e+00 
7.500000000000000e-04 0.000000000000000e+00 0.000000000000000e+00 
7.812500000000000e-04 0.000000000000000e+00 0.000000000000000e+00 
7.812500000000000e-04 0.000000000000000e+00 0.000000000000000e+00 
8.125000000000001e-04 0.000000000000000e+00 0.000000000000000e+00 
8.125000000000001e-04 0.000000000000000e+00 0.000000000000000e+00 
8.437500000000000e-04 0.000000000000000e+00 0.000000000000000e+00 
8.437500000000000e-04 0.000000000000000e+00 0.000000000000000e+00 
8.750000000000000e-04 0.000000000000000e+00 0.000000000000000e+00 
8.750000000000000e-04 0.000000000000000e+00 0.000000000000000e+00 
9.062500000000000e-04 0.000000000000000e+00 0.000000000000000e+00 
9.062500000000000e-04 0.000000000000000e+00 0.000000000000000e+00 
9.375000000000000e-04 0.000000000000000e+00 0.000000000000000e+00 
9.375000000000000e-04 0.000000000000000e+00 0.000000000000000e+00 
9.687500000000000e-04 0.000000000000000e+00 0.000000000000000e+00 
9.687500000000000e-04 0.000000000000000e+00 0.000000000000000e+00 
1.000000000000000e-03 0.000000000000000e+00 0.000000000000000e+00 
    </DataArray>
  </Points>

  <Cells>
    <DataArray type="Int32" Name="connectivity" format="ascii">
0 1 2 3 4 5 6 7 8 9 10 11 12 13 14 15 16 17 18 19 20 21 22 23 24 25 26 27 28 29 30 31 32 33 34 35 36 37 38 39 40 41 42 43 44 45 46 47 48 49 50 51 52 53 54 55 56 57 58 59 60 61 62 63     </DataArray>
    <DataArray type="Int32" Name="offsets" format="ascii">
2 4 6 8 10 12 14 16 18 20 22 24 26 28 30 32 34 36 38 40 42 44 46 48 50 52 54 56 58 60 62 64     </DataArray>
    <DataArray type="UInt8" Name="types" format="ascii">
3 3 3 3 3 3 3 3 3 3 3 3 3 3 3 3 3 3 3 3 3 3 3 3 3 3 3 3 3 3 3 3     </DataArray>
  </Cells>

  <PointData>
    <DataArray type="Float64" Name="phi_1" format="ascii">
7.499807431966819e+03 
7.504321769398941e+03 
7.504321769398941e+03 
7.517854002248608e+03 
7.517854002248608e+03 
7.540371816014655e+03 
7.540371816014655e+03 
7.571821432647630e+03 
7.571821432647630e+03 
7.612127729725117e+03 
7.612127729725117e+03 
7.661194407272686e+03 
7.661194407272686e+03 
7.718904202200423e+03 
7.718904202200423e+03 
7.785119150275504e+03 
7.785119150275504e+03 
7.859680895516805e+03 
7.859680895516805e+03 
7.942411046821392e+03 
7.942411046821392e+03 
8.033111581556800e+03 
8.033111581556800e+03 
8.131565295751068e+03 
8.131565295751068e+03 
8.237536300403044e+03 
8.237536300403044e+03 
8.350770563304188e+03 
8.350770563304188e+03 
8.470996495629866e+03 
8.470996495629866e+03 
8.597925582408352e+03 
8.597925582408352e+03 
8.731253055820636e+03 
8.731253055820636e+03 
8.870658610139002e+03 
8.870658610139002e+03 
9.015807156894865e+03 
9.015807156894865e+03 
9.166349618910488e+03 
9.166349618910488e+03 
9.321923760898128e+03 
9.321923760898128e+03 
9.482155057053929e+03 
9.482155057053929e+03 
9.646657585063476e+03 
9.646657585063476e+03 
9.815034976645045e+03 
9.815034976645045e+03 
9.986881300792747e+03 
9.986881300792747e+03 
1.016178233479486e+04 
1.016178233479486e+04 
1.033931549806351e+04 
1.033931549806351e+04 
1.051905493039338e+04 
1.051905493039338e+04 
1.070055730062975e+04 
1.070055730062975e+04 
1.088342023967415e+04 
1.088342023967415e+04 
1.106706746604804e+04 
1.106706746604804e+04 
1.125156268823250e+04 
    </DataArray>
    <DataArray type="Float64" Name="phiAnalytic_1" format="ascii">
7.684310122104134e+03 
7.688606861765920e+03 
7.688606861765920e+03 
7.701486733258450e+03 
7.701486733258450e+03 
7.722918718950536e+03 
7.722918718950536e+03 
7.752851205556380e+03 
7.752851205556380e+03 
7.791212108081547e+03 
7.791212108081547e+03 
7.837909042941121e+03 
7.837909042941121e+03 
7.892829549844712e+03 
7.892829549844712e+03 
7.955841361928352e+03 
7.955841361928352e+03 
8.026792723499733e+03 
8.026792723499733e+03 
8.105512754650747e+03 
8.105512754650747e+03 
8.191811861880144e+03 
8.191811861880144e+03 
8.285482193759630e+03 
8.285482193759630e+03 
8.386298140569110e+03 
8.386298140569110e+03 
8.494016876721107e+03 
8.494016876721107e+03 
8.608378944691234e+03 
8.608378944691234e+03 
8.729108879070836e+03 
8.729108879070836e+03 
8.855915869260161e+03 
8.855915869260161e+03 
8.988494459225591e+03 
8.988494459225591e+03 
9.126525282653194e+03 
9.126525282653194e+03 
9.269675831743059e+03 
9.269675831743059e+03 
9.417601257804974e+03 
9.417601257804974e+03 
9.569945201736457e+03 
9.569945201736457e+03 
9.726340652388692e+03 
9.726340652388692e+03 
9.886410830755496e+03 
9.886410830755496e+03 
1.004977009785453e+04 
1.004977009785453e+04 
1.021602488410963e+04 
1.021602488410963e+04 
1.038477463798779e+04 
1.038477463798779e+04 
1.055561279159480e+04 
1.055561279159480e+04 
1.072812774088958e+04 
1.072812774088958e+04 
1.090190383813951e+04 
1.090190383813951e+04 
1.107652239420707e+04 
1.107652239420707e+04 
1.125156268823250e+04 
    </DataArray>
    <DataArray type="Float64" Name="phi_2" format="ascii">
-1.760054826235794e+05 
-1.760039907049330e+05 
-1.760039907049330e+05 
-1.759995238882951e+05 
-1.759995238882951e+05 
-1.759921088552399e+05 
-1.759921088552399e+05 
-1.759817896249968e+05 
-1.759817896249968e+05 
-1.759686268944188e+05 
-1.759686268944188e+05 
-1.759526971432180e+05 
-1.759526971432180e+05 
-1.759340915318581e+05 
-1.759340915318581e+05 
-1.759129146247887e+05 
-1.759129146247887e+05 
-1.758892829753902e+05 
-1.758892829753902e+05 
-1.758633236109776e+05 
-1.758633236109776e+05 
-1.758351724565167e+05 
-1.758351724565167e+05 
-1.758049727344761e+05 
-1.758049727344761e+05 
-1.757728733756763e+05 
-1.757728733756763e+05 
-1.757390274723831e+05 
-1.757390274723831e+05 
-1.757035908005150e+05 
-1.757035908005150e+05 
-1.756667204330102e+05 
-1.756667204330102e+05 
-1.756285734613939e+05 
-1.756285734613939e+05 
-1.755893058376700e+05 
-1.755893058376700e+05 
-1.755490713440201e+05 
-1.755490713440201e+05 
-1.755080206935949e+05 
-1.755080206935949e+05 
-1.754663007620170e+05 
-1.754663007620170e+05 
-1.754240539461537e+05 
-1.754240539461537e+05 
-1.753814176442496e+05 
-1.753814176442496e+05 
-1.753385238496977e+05 
-1.753385238496977e+05 
-1.752954988492214e+05 
-1.752954988492214e+05 
-1.752524630161568e+05 
-1.752524630161568e+05 
-1.752095306864058e+05 
-1.752095306864058e+05 
-1.751668101146607e+05 
-1.751668101146607e+05 
-1.751244034716184e+05 
-1.751244034716184e+05 
-1.750824069798741e+05 
-1.750824069798741e+05 
-1.750409107859035e+05 
-1.750409107859035e+05 
-1.750000000000000e+05 
    </DataArray>
    <DataArray type="Float64" Name="phiAnalytic_2" format="ascii">
-1.759452392158853e+05 
-1.759438535529523e+05 
-1.759438535529523e+05 
-1.759397045360905e+05 
-1.759397045360905e+05 
-1.759328159659166e+05 
-1.759328159659166e+05 
-1.759232271296398e+05 
-1.759232271296398e+05 
-1.759109922424034e+05 
-1.759109922424034e+05 
-1.758961796886622e+05 
-1.758961796886622e+05 
-1.758788710856583e+05 
-1.758788710856583e+05 
-1.758591601954261e+05 
-1.758591601954261e+05 
-1.758371517148908e+05 
-1.758371517148908e+05 
-1.758129599754244e+05 
-1.758129599754244e+05 
-1.757867075837188e+05 
-1.757867075837188e+05 
-1.757585240350990e+05 
-1.757585240350990e+05 
-1.757285443285873e+05 
-1.757285443285873e+05 
-1.756969076103368e+05 
-1.756969076103368e+05 
-1.756637558687031e+05 
-1.756637558687031e+05 
-1.756292327004462e+05 
-1.756292327004462e+05 
-1.755934821635728e+05 
-1.755934821635728e+05 
-1.755566477283407e+05 
-1.755566477283407e+05 
-1.755188713341244e+05 
-1.755188713341244e+05 
-1.754802925563092e+05 
-1.754802925563092e+05 
-1.754410478842453e+05 
-1.754410478842453e+05 
-1.754012701085968e+05 
-1.754012701085968e+05 
-1.753610878142073e+05 
-1.753610878142073e+05 
-1.753206249728556e+05 
-1.753206249728556e+05 
-1.752800006289814e+05 
-1.752800006289814e+05 
-1.752393286705778e+05 
-1.752393286705778e+05 
-1.751987176769271e+05 
-1.751987176769271e+05 
-1.751582708346490e+05 
-1.751582708346490e+05 
-1.751180859135759e+05 
-1.751180859135759e+05 
-1.750782552942233e+05 
-1.750782552942233e+05 
-1.750388660390225e+05 
-1.750388660390225e+05 
-1.750000000000000e+05 
    </DataArray>
  </PointData>
  <CellData>
    <DataArray type="Float64" Name="Owner" format="ascii">
0.000000000000000e+00 
0.000000000000000e+00 
0.000000000000000e+00 
0.000000000000000e+00 
0.000000000000000e+00 
0.000000000000000e+00 
0.000000000000000e+00 
0.000000000000000e+00 
0.000000000000000e+00 
0.000000000000000e+00 
0.000000000000000e+00 
0.000000000000000e+00 
0.000000000000000e+00 
0.000000000000000e+00 
0.000000000000000e+00 
0.000000000000000e+00 
0.000000000000000e+00 
0.000000000000000e+00 
0.000000000000000e+00 
0.000000000000000e+00 
0.000000000000000e+00 
0.000000000000000e+00 
0.000000000000000e+00 
0.000000000000000e+00 
0.000000000000000e+00 
0.000000000000000e+00 
0.000000000000000e+00 
0.000000000000000e+00 
0.000000000000000e+00 
0.000000000000000e+00 
0.000000000000000e+00 
0.000000000000000e+00 
0.000000000000000e+00 
0.000000000000000e+00 
0.000000000000000e+00 
0.000000000000000e+00 
0.000000000000000e+00 
0.000000000000000e+00 
0.000000000000000e+00 
0.000000000000000e+00 
0.000000000000000e+00 
0.000000000000000e+00 
0.000000000000000e+00 
0.000000000000000e+00 
0.000000000000000e+00 
0.000000000000000e+00 
0.000000000000000e+00 
0.000000000000000e+00 
0.000000000000000e+00 
0.000000000000000e+00 
0.000000000000000e+00 
0.000000000000000e+00 
0.000000000000000e+00 
0.000000000000000e+00 
0.000000000000000e+00 
0.000000000000000e+00 
0.000000000000000e+00 
0.000000000000000e+00 
0.000000000000000e+00 
0.000000000000000e+00 
0.000000000000000e+00 
0.000000000000000e+00 
0.000000000000000e+00 
0.000000000000000e+00 
    </DataArray>
  </CellData>
</Piece>
</UnstructuredGrid>
</VTKFile>
