<?xml version="1.0" ?> 
<!-- 
# vtk DataFile Version 3.0
-->
<VTKFile type="UnstructuredGrid" version="0.1" compressor="vtkZLibDataCompressor" byte_order="LittleEndian">
<UnstructuredGrid>
<FieldData>
<DataArray type="Float32" Name="TIME" NumberOfTuples="1" format="ascii">892.85714286</DataArray>
</FieldData>
<Piece NumberOfPoints="64" NumberOfCells="32" >
  <Points>
    <DataArray type="Float64" NumberOfComponents="3" format="ascii">
0.000000000000000e+00 0.000000000000000e+00 0.000000000000000e+00 
3.125000000000000e-05 0.000000000000000e+00 0.000000000000000e+00 
3.125000000000000e-05 0.000000000000000e+00 0.000000000000000e+00 
6.250000000000000e-05 0.000000000000000e+00 0.000000000000000e+00 
6.250000000000000e-05 0.000000000000000e+00 0.000000000000000e+00 
9.375000000000000e-05 0.000000000000000e+00 0.000000000000000e+00 
9.375000000000000e-05 0.000000000000000e+00 0.000000000000000e+00 
1.250000000000000e-04 0.000000000000000e+00 0.000000000000000e+00 
1.250000000000000e-04 0.000000000000000e+00 0.000000000000000e+00 
1.562500000000000e-04 0.000000000000000e+00 0.000000000000000e+00 
1.562500000000000e-04 0.000000000000000e+00 0.000000000000000e+00 
1.875000000000000e-04 0.000000000000000e+00 0.000000000000000e+00 
1.875000000000000e-04 0.000000000000000e+00 0.000000000000000e+00 
2.187500000000000e-04 0.000000000000000e+00 0.000000000000000e+00 
2.187500000000000e-04 0.000000000000000e+00 0.000000000000000e+00 
2.500000000000000e-04 0.000000000000000e+00 0.000000000000000e+00 
2.500000000000000e-04 0.000000000000000e+00 0.000000000000000e+00 
2.812500000000000e-04 0.000000000000000e+00 0.000000000000000e+00 
2.812500000000000e-04 0.000000000000000e+00 0.000000000000000e+00 
3.125000000000000e-04 0.000000000000000e+00 0.000000000000000e+00 
3.125000000000000e-04 0.000000000000000e+00 0.000000000000000e+00 
3.437500000000000e-04 0.000000000000000e+00 0.000000000000000e+00 
3.437500000000000e-04 0.000000000000000e+00 0.000000000000000e+00 
3.750000000000000e-04 0.000000000000000e+00 0.000000000000000e+00 
3.750000000000000e-04 0.000000000000000e+00 0.000000000000000e+00 
4.062500000000000e-04 0.000000000000000e+00 0.000000000000000e+00 
4.062500000000000e-04 0.000000000000000e+00 0.000000000000000e+00 
4.375000000000000e-04 0.000000000000000e+00 0.000000000000000e+00 
4.375000000000000e-04 0.000000000000000e+00 0.000000000000000e+00 
4.687500000000000e-04 0.000000000000000e+00 0.000000000000000e+00 
4.687500000000000e-04 0.000000000000000e+00 0.000000000000000e+00 
5.000000000000000e-04 0.000000000000000e+00 0.000000000000000e+00 
5.000000000000000e-04 0.000000000000000e+00 0.000000000000000e+00 
5.312500000000000e-04 0.000000000000000e+00 0.000000000000000e+00 
5.312500000000000e-04 0.000000000000000e+00 0.000000000000000e+00 
5.625000000000001e-04 0.000000000000000e+00 0.000000000000000e+00 
5.625000000000001e-04 0.000000000000000e+00 0.000000000000000e+00 
5.937500000000000e-04 0.000000000000000e+00 0.000000000000000e+00 
5.937500000000000e-04 0.000000000000000e+00 0.000000000000000e+00 
6.250000000000000e-04 0.000000000000000e+00 0.000000000000000e+00 
6.250000000000000e-04 0.000000000000000e+00 0.000000000000000e+00 
6.562500000000000e-04 0.000000000000000e+00 0.000000000000000e+00 
6.562500000000000e-04 0.000000000000000e+00 0.000000000000000e+00 
6.875000000000000e-04 0.000000000000000e+00 0.000000000000000e+00 
6.875000000000000e-04 0.000000000000000e+00 0.000000000000000e+00 
7.187500000000000e-04 0.000000000000000e+00 0.000000000000000e+00 
7.187500000000000e-04 0.000000000000000e+00 0.000000000000000e+00 
7.500000000000000e-04 0.000000000000000e+00 0.000000000000000e+00 
7.500000000000000e-04 0.000000000000000e+00 0.000000000000000e+00 
7.812500000000000e-04 0.000000000000000e+00 0.000000000000000e+00 
7.812500000000000e-04 0.000000000000000e+00 0.000000000000000e+00 
8.125000000000001e-04 0.000000000000000e+00 0.000000000000000e+00 
8.125000000000001e-04 0.000000000000000e+00 0.000000000000000e+00 
8.437500000000000e-04 0.000000000000000e+00 0.000000000000000e+00 
8.437500000000000e-04 0.000000000000000e+00 0.000000000000000e+00 
8.750000000000000e-04 0.000000000000000e+00 0.000000000000000e+00 
8.750000000000000e-04 0.000000000000000e+00 0.000000000000000e+00 
9.062500000000000e-04 0.000000000000000e+00 0.000000000000000e+00 
9.062500000000000e-04 0.000000000000000e+00 0.000000000000000e+00 
9.375000000000000e-04 0.000000000000000e+00 0.000000000000000e+00 
9.375000000000000e-04 0.000000000000000e+00 0.000000000000000e+00 
9.687500000000000e-04 0.000000000000000e+00 0.000000000000000e+00 
9.687500000000000e-04 0.000000000000000e+00 0.000000000000000e+00 
1.000000000000000e-03 0.000000000000000e+00 0.000000000000000e+00 
    </DataArray>
  </Points>

  <Cells>
    <DataArray type="Int32" Name="connectivity" format="ascii">
0 1 2 3 4 5 6 7 8 9 10 11 12 13 14 15 16 17 18 19 20 21 22 23 24 25 26 27 28 29 30 31 32 33 34 35 36 37 38 39 40 41 42 43 44 45 46 47 48 49 50 51 52 53 54 55 56 57 58 59 60 61 62 63     </DataArray>
    <DataArray type="Int32" Name="offsets" format="ascii">
2 4 6 8 10 12 14 16 18 20 22 24 26 28 30 32 34 36 38 40 42 44 46 48 50 52 54 56 58 60 62 64     </DataArray>
    <DataArray type="UInt8" Name="types" format="ascii">
3 3 3 3 3 3 3 3 3 3 3 3 3 3 3 3 3 3 3 3 3 3 3 3 3 3 3 3 3 3 3 3     </DataArray>
  </Cells>

  <PointData>
    <DataArray type="Float64" Name="phi_1" format="ascii">
8.848869413556318e+03 
8.851762935285984e+03 
8.851762935285984e+03 
8.860436539150440e+03 
8.860436539150440e+03 
8.874869357768941e+03 
8.874869357768941e+03 
8.895026667447120e+03 
8.895026667447120e+03 
8.920859970963465e+03 
8.920859970963465e+03 
8.952307113220380e+03 
8.952307113220380e+03 
8.989292429510400e+03 
8.989292429510400e+03 
9.031726926075837e+03 
9.031726926075837e+03 
9.079508492565776e+03 
9.079508492565776e+03 
9.132522145925719e+03 
9.132522145925719e+03 
9.190640305177096e+03 
9.190640305177096e+03 
9.253723096474321e+03 
9.253723096474321e+03 
9.321618687753842e+03 
9.321618687753842e+03 
9.394163652213725e+03 
9.394163652213725e+03 
9.471183359796145e+03 
9.471183359796145e+03 
9.552492395767797e+03 
9.552492395767797e+03 
9.637895005430548e+03 
9.637895005430548e+03 
9.727185563922345e+03 
9.727185563922345e+03 
9.820149069991066e+03 
9.820149069991066e+03 
9.916561662639999e+03 
9.916561662639999e+03 
1.001619115915447e+04 
1.001619115915447e+04 
1.011879761420199e+04 
1.011879761420199e+04 
1.022413389501410e+04 
1.022413389501410e+04 
1.033194628493370e+04 
1.033194628493370e+04 
1.044197506259251e+04 
1.044197506259251e+04 
1.055395524769759e+04 
1.055395524769759e+04 
1.066761678980061e+04 
1.066761678980061e+04 
1.078268690783451e+04 
1.078268690783451e+04 
1.089888441311854e+04 
1.089888441311854e+04 
1.101594415750620e+04 
1.101594415750620e+04 
1.113352848560629e+04 
1.113352848560629e+04 
1.125156268823250e+04 
    </DataArray>
    <DataArray type="Float64" Name="phiAnalytic_1" format="ascii">
9.005535636337689e+03 
9.008241071607210e+03 
9.008241071607210e+03 
9.016350859843227e+03 
9.016350859843227e+03 
9.029845464028256e+03 
9.029845464028256e+03 
9.048692374762530e+03 
9.048692374762530e+03 
9.072846188575832e+03 
9.072846188575832e+03 
9.102248717300032e+03 
9.102248717300032e+03 
9.136829128238982e+03 
9.136829128238982e+03 
9.176504114798325e+03 
9.176504114798325e+03 
9.221178097164433e+03 
9.221178097164433e+03 
9.270743452549288e+03 
9.270743452549288e+03 
9.325080774447035e+03 
9.325080774447035e+03 
9.384059160277864e+03 
9.384059160277864e+03 
9.447536526726766e+03 
9.447536526726766e+03 
9.515359952017723e+03 
9.515359952017723e+03 
9.587366044299226e+03 
9.587366044299226e+03 
9.663381335253958e+03 
9.663381335253958e+03 
9.743222697984747e+03 
9.743222697984747e+03 
9.826697788170375e+03 
9.826697788170375e+03 
9.913605507428754e+03 
9.913605507428754e+03 
1.000373648777142e+04 
1.000373648777142e+04 
1.009687359598242e+04 
1.009687359598242e+04 
1.019279245670674e+04 
1.019279245670674e+04 
1.029126199298802e+04 
1.029126199298802e+04 
1.039204498295371e+04 
1.039204498295371e+04 
1.049489863130615e+04 
1.049489863130615e+04 
1.059957515424313e+04 
1.059957515424313e+04 
1.070582237639842e+04 
1.070582237639842e+04 
1.081338433836413e+04 
1.081338433836413e+04 
1.092200191333116e+04 
1.092200191333116e+04 
1.103141343136176e+04 
1.103141343136176e+04 
1.114135530979021e+04 
1.114135530979021e+04 
1.125156268823250e+04 
    </DataArray>
    <DataArray type="Float64" Name="phi_2" format="ascii">
-1.755954552973565e+05 
-1.755946447841147e+05 
-1.755946447841147e+05 
-1.755922167819961e+05 
-1.755922167819961e+05 
-1.755881818697572e+05 
-1.755881818697572e+05 
-1.755825575658021e+05 
-1.755825575658021e+05 
-1.755753681612874e+05 
-1.755753681612874e+05 
-1.755666444911635e+05 
-1.755666444911635e+05 
-1.755564236476533e+05 
-1.755564236476533e+05 
-1.755447486416932e+05 
-1.755447486416932e+05 
-1.755316680186988e+05 
-1.755316680186988e+05 
-1.755172354356624e+05 
-1.755172354356624e+05 
-1.755015092070201e+05 
-1.755015092070201e+05 
-1.754845518269369e+05 
-1.754845518269369e+05 
-1.754664294756759e+05 
-1.754664294756759e+05 
-1.754472115175258e+05 
-1.754472115175258e+05 
-1.754269699974152e+05 
-1.754269699974152e+05 
-1.754057791428363e+05 
-1.754057791428363e+05 
-1.753837148770878e+05 
-1.753837148770878e+05 
-1.753608543491469e+05 
-1.753608543491469e+05 
-1.753372754847144e+05 
-1.753372754847144e+05 
-1.753130565622019e+05 
-1.753130565622019e+05 
-1.752882758166312e+05 
-1.752882758166312e+05 
-1.752630110736601e+05 
-1.752630110736601e+05 
-1.752373394152122e+05 
-1.752373394152122e+05 
-1.752113368775321e+05 
-1.752113368775321e+05 
-1.751850781818339e+05 
-1.751850781818339e+05 
-1.751586364973535e+05 
-1.751586364973535e+05 
-1.751320832354900e+05 
-1.751320832354900e+05 
-1.751054878758345e+05 
-1.751054878758345e+05 
-1.750789178152897e+05 
-1.750789178152897e+05 
-1.750524382657328e+05 
-1.750524382657328e+05 
-1.750261120977676e+05 
-1.750261120977676e+05 
-1.750000000000000e+05 
    </DataArray>
    <DataArray type="Float64" Name="phiAnalytic_2" format="ascii">
-1.755519526147151e+05 
-1.755512080418497e+05 
-1.755512080418497e+05 
-1.755489774560578e+05 
-1.755489774560578e+05 
-1.755452702273172e+05 
-1.755452702273172e+05 
-1.755401018780131e+05 
-1.755401018780131e+05 
-1.755334939434534e+05 
-1.755334939434534e+05 
-1.755254737802852e+05 
-1.755254737802852e+05 
-1.755160743263703e+05 
-1.755160743263703e+05 
-1.755053338164876e+05 
-1.755053338164876e+05 
-1.754932954589229e+05 
-1.754932954589229e+05 
-1.754800070785313e+05 
-1.754800070785313e+05 
-1.754655207322351e+05 
-1.754655207322351e+05 
-1.754498923031277e+05 
-1.754498923031277e+05 
-1.754331810794018e+05 
-1.754331810794018e+05 
-1.754154493242215e+05 
-1.754154493242215e+05 
-1.753967618424178e+05 
-1.753967618424178e+05 
-1.753771855495352e+05 
-1.753771855495352e+05 
-1.753567890483023e+05 
-1.753567890483023e+05 
-1.753356422170715e+05 
-1.753356422170715e+05 
-1.753138158141970e+05 
-1.753138158141970e+05 
-1.752913811017043e+05 
-1.752913811017043e+05 
-1.752684094909868e+05 
-1.752684094909868e+05 
-1.752449722126507e+05 
-1.752449722126507e+05 
-1.752211400120384e+05 
-1.752211400120384e+05 
-1.751969828714054e+05 
-1.751969828714054e+05 
-1.751725697592177e+05 
-1.751725697592177e+05 
-1.751479684065769e+05 
-1.751479684065769e+05 
-1.751232451103819e+05 
-1.751232451103819e+05 
-1.750984645624924e+05 
-1.750984645624924e+05 
-1.750736897038740e+05 
-1.750736897038740e+05 
-1.750489816024778e+05 
-1.750489816024778e+05 
-1.750243993534329e+05 
-1.750243993534329e+05 
-1.750000000000000e+05 
    </DataArray>
  </PointData>
  <CellData>
    <DataArray type="Float64" Name="Owner" format="ascii">
0.000000000000000e+00 
0.000000000000000e+00 
0.000000000000000e+00 
0.000000000000000e+00 
0.000000000000000e+00 
0.000000000000000e+00 
0.000000000000000e+00 
0.000000000000000e+00 
0.000000000000000e+00 
0.000000000000000e+00 
0.000000000000000e+00 
0.000000000000000e+00 
0.000000000000000e+00 
0.000000000000000e+00 
0.000000000000000e+00 
0.000000000000000e+00 
0.000000000000000e+00 
0.000000000000000e+00 
0.000000000000000e+00 
0.000000000000000e+00 
0.000000000000000e+00 
0.000000000000000e+00 
0.000000000000000e+00 
0.000000000000000e+00 
0.000000000000000e+00 
0.000000000000000e+00 
0.000000000000000e+00 
0.000000000000000e+00 
0.000000000000000e+00 
0.000000000000000e+00 
0.000000000000000e+00 
0.000000000000000e+00 
0.000000000000000e+00 
0.000000000000000e+00 
0.000000000000000e+00 
0.000000000000000e+00 
0.000000000000000e+00 
0.000000000000000e+00 
0.000000000000000e+00 
0.000000000000000e+00 
0.000000000000000e+00 
0.000000000000000e+00 
0.000000000000000e+00 
0.000000000000000e+00 
0.000000000000000e+00 
0.000000000000000e+00 
0.000000000000000e+00 
0.000000000000000e+00 
0.000000000000000e+00 
0.000000000000000e+00 
0.000000000000000e+00 
0.000000000000000e+00 
0.000000000000000e+00 
0.000000000000000e+00 
0.000000000000000e+00 
0.000000000000000e+00 
0.000000000000000e+00 
0.000000000000000e+00 
0.000000000000000e+00 
0.000000000000000e+00 
0.000000000000000e+00 
0.000000000000000e+00 
0.000000000000000e+00 
0.000000000000000e+00 
    </DataArray>
  </CellData>
</Piece>
</UnstructuredGrid>
</VTKFile>
