<?xml version="1.0" ?> 
<!-- 
# vtk DataFile Version 3.0
-->
<VTKFile type="UnstructuredGrid" version="0.1" compressor="vtkZLibDataCompressor" byte_order="LittleEndian">
<UnstructuredGrid>
<FieldData>
<DataArray type="Float32" Name="TIME" NumberOfTuples="1" format="ascii">855.6547619075</DataArray>
</FieldData>
<Piece NumberOfPoints="64" NumberOfCells="32" >
  <Points>
    <DataArray type="Float64" NumberOfComponents="3" format="ascii">
0.000000000000000e+00 0.000000000000000e+00 0.000000000000000e+00 
3.125000000000000e-05 0.000000000000000e+00 0.000000000000000e+00 
3.125000000000000e-05 0.000000000000000e+00 0.000000000000000e+00 
6.250000000000000e-05 0.000000000000000e+00 0.000000000000000e+00 
6.250000000000000e-05 0.000000000000000e+00 0.000000000000000e+00 
9.375000000000000e-05 0.000000000000000e+00 0.000000000000000e+00 
9.375000000000000e-05 0.000000000000000e+00 0.000000000000000e+00 
1.250000000000000e-04 0.000000000000000e+00 0.000000000000000e+00 
1.250000000000000e-04 0.000000000000000e+00 0.000000000000000e+00 
1.562500000000000e-04 0.000000000000000e+00 0.000000000000000e+00 
1.562500000000000e-04 0.000000000000000e+00 0.000000000000000e+00 
1.875000000000000e-04 0.000000000000000e+00 0.000000000000000e+00 
1.875000000000000e-04 0.000000000000000e+00 0.000000000000000e+00 
2.187500000000000e-04 0.000000000000000e+00 0.000000000000000e+00 
2.187500000000000e-04 0.000000000000000e+00 0.000000000000000e+00 
2.500000000000000e-04 0.000000000000000e+00 0.000000000000000e+00 
2.500000000000000e-04 0.000000000000000e+00 0.000000000000000e+00 
2.812500000000000e-04 0.000000000000000e+00 0.000000000000000e+00 
2.812500000000000e-04 0.000000000000000e+00 0.000000000000000e+00 
3.125000000000000e-04 0.000000000000000e+00 0.000000000000000e+00 
3.125000000000000e-04 0.000000000000000e+00 0.000000000000000e+00 
3.437500000000000e-04 0.000000000000000e+00 0.000000000000000e+00 
3.437500000000000e-04 0.000000000000000e+00 0.000000000000000e+00 
3.750000000000000e-04 0.000000000000000e+00 0.000000000000000e+00 
3.750000000000000e-04 0.000000000000000e+00 0.000000000000000e+00 
4.062500000000000e-04 0.000000000000000e+00 0.000000000000000e+00 
4.062500000000000e-04 0.000000000000000e+00 0.000000000000000e+00 
4.375000000000000e-04 0.000000000000000e+00 0.000000000000000e+00 
4.375000000000000e-04 0.000000000000000e+00 0.000000000000000e+00 
4.687500000000000e-04 0.000000000000000e+00 0.000000000000000e+00 
4.687500000000000e-04 0.000000000000000e+00 0.000000000000000e+00 
5.000000000000000e-04 0.000000000000000e+00 0.000000000000000e+00 
5.000000000000000e-04 0.000000000000000e+00 0.000000000000000e+00 
5.312500000000000e-04 0.000000000000000e+00 0.000000000000000e+00 
5.312500000000000e-04 0.000000000000000e+00 0.000000000000000e+00 
5.625000000000001e-04 0.000000000000000e+00 0.000000000000000e+00 
5.625000000000001e-04 0.000000000000000e+00 0.000000000000000e+00 
5.937500000000000e-04 0.000000000000000e+00 0.000000000000000e+00 
5.937500000000000e-04 0.000000000000000e+00 0.000000000000000e+00 
6.250000000000000e-04 0.000000000000000e+00 0.000000000000000e+00 
6.250000000000000e-04 0.000000000000000e+00 0.000000000000000e+00 
6.562500000000000e-04 0.000000000000000e+00 0.000000000000000e+00 
6.562500000000000e-04 0.000000000000000e+00 0.000000000000000e+00 
6.875000000000000e-04 0.000000000000000e+00 0.000000000000000e+00 
6.875000000000000e-04 0.000000000000000e+00 0.000000000000000e+00 
7.187500000000000e-04 0.000000000000000e+00 0.000000000000000e+00 
7.187500000000000e-04 0.000000000000000e+00 0.000000000000000e+00 
7.500000000000000e-04 0.000000000000000e+00 0.000000000000000e+00 
7.500000000000000e-04 0.000000000000000e+00 0.000000000000000e+00 
7.812500000000000e-04 0.000000000000000e+00 0.000000000000000e+00 
7.812500000000000e-04 0.000000000000000e+00 0.000000000000000e+00 
8.125000000000001e-04 0.000000000000000e+00 0.000000000000000e+00 
8.125000000000001e-04 0.000000000000000e+00 0.000000000000000e+00 
8.437500000000000e-04 0.000000000000000e+00 0.000000000000000e+00 
8.437500000000000e-04 0.000000000000000e+00 0.000000000000000e+00 
8.750000000000000e-04 0.000000000000000e+00 0.000000000000000e+00 
8.750000000000000e-04 0.000000000000000e+00 0.000000000000000e+00 
9.062500000000000e-04 0.000000000000000e+00 0.000000000000000e+00 
9.062500000000000e-04 0.000000000000000e+00 0.000000000000000e+00 
9.375000000000000e-04 0.000000000000000e+00 0.000000000000000e+00 
9.375000000000000e-04 0.000000000000000e+00 0.000000000000000e+00 
9.687500000000000e-04 0.000000000000000e+00 0.000000000000000e+00 
9.687500000000000e-04 0.000000000000000e+00 0.000000000000000e+00 
1.000000000000000e-03 0.000000000000000e+00 0.000000000000000e+00 
    </DataArray>
  </Points>

  <Cells>
    <DataArray type="Int32" Name="connectivity" format="ascii">
0 1 2 3 4 5 6 7 8 9 10 11 12 13 14 15 16 17 18 19 20 21 22 23 24 25 26 27 28 29 30 31 32 33 34 35 36 37 38 39 40 41 42 43 44 45 46 47 48 49 50 51 52 53 54 55 56 57 58 59 60 61 62 63     </DataArray>
    <DataArray type="Int32" Name="offsets" format="ascii">
2 4 6 8 10 12 14 16 18 20 22 24 26 28 30 32 34 36 38 40 42 44 46 48 50 52 54 56 58 60 62 64     </DataArray>
    <DataArray type="UInt8" Name="types" format="ascii">
3 3 3 3 3 3 3 3 3 3 3 3 3 3 3 3 3 3 3 3 3 3 3 3 3 3 3 3 3 3 3 3     </DataArray>
  </Cells>

  <PointData>
    <DataArray type="Float64" Name="phi_1" format="ascii">
8.663589515628752e+03 
8.666706025161066e+03 
8.666706025161066e+03 
8.676048058763790e+03 
8.676048058763790e+03 
8.691593149255168e+03 
8.691593149255168e+03 
8.713303910635022e+03 
8.713303910635022e+03 
8.741128126909703e+03 
8.741128126909703e+03 
8.774998876194217e+03 
8.774998876194217e+03 
8.814834689828960e+03 
8.814834689828960e+03 
8.860539746183260e+03 
8.860539746183260e+03 
8.912004098737229e+03 
8.912004098737229e+03 
8.969103937955953e+03 
8.969103937955953e+03 
9.031701886395329e+03 
9.031701886395329e+03 
9.099647326399163e+03 
9.099647326399163e+03 
9.172776759667162e+03 
9.172776759667162e+03 
9.250914197898490e+03 
9.250914197898490e+03 
9.333871583631995e+03 
9.333871583631995e+03 
9.421449240331778e+03 
9.421449240331778e+03 
9.513436350684047e+03 
9.513436350684047e+03 
9.609611462007046e+03 
9.609611462007046e+03 
9.709743017573112e+03 
9.709743017573112e+03 
9.813589912673589e+03 
9.813589912673589e+03 
9.920902073812174e+03 
9.920902073812174e+03 
1.003142106076329e+04 
1.003142106076329e+04 
1.014488068584881e+04 
1.014488068584881e+04 
1.026100766472753e+04 
1.026100766472753e+04 
1.037952223785543e+04 
1.037952223785543e+04 
1.050013898354395e+04 
1.050013898354395e+04 
1.062256698572116e+04 
1.062256698572116e+04 
1.074651248994478e+04 
1.074651248994478e+04 
1.087167227700545e+04 
1.087167227700545e+04 
1.099776193068589e+04 
1.099776193068589e+04 
1.112441316203373e+04 
1.112441316203373e+04 
1.125156268823250e+04 
    </DataArray>
    <DataArray type="Float64" Name="phiAnalytic_1" format="ascii">
8.825501385339869e+03 
8.828423677066094e+03 
8.828423677066094e+03 
8.837183512304100e+03 
8.837183512304100e+03 
8.851759788189242e+03 
8.851759788189242e+03 
8.872117389764027e+03 
8.872117389764027e+03 
8.898207274560858e+03 
8.898207274560858e+03 
8.929966590732780e+03 
8.929966590732780e+03 
8.967318828448089e+03 
8.967318828448089e+03 
9.010174004184459e+03 
9.010174004184459e+03 
9.058428877479237e+03 
9.058428877479237e+03 
9.111967199614204e+03 
9.111967199614204e+03 
9.170659993636540e+03 
9.170659993636540e+03 
9.234365865041918e+03 
9.234365865041918e+03 
9.302931342372098e+03 
9.302931342372098e+03 
9.376191246907245e+03 
9.376191246907245e+03 
9.453969090562987e+03 
9.453969090562987e+03 
9.536077501034453e+03 
9.536077501034453e+03 
9.622318673163716e+03 
9.622318673163716e+03 
9.712484845443876e+03 
9.712484845443876e+03 
9.806358800512420e+03 
9.806358800512420e+03 
9.903714388428602e+03 
9.903714388428602e+03 
1.000431707147461e+04 
1.000431707147461e+04 
1.010792448916839e+04 
1.010792448916839e+04 
1.021428704212704e+04 
1.021428704212704e+04 
1.032314849337448e+04 
1.032314849337448e+04 
1.043424658564459e+04 
1.043424658564459e+04 
1.054731367319263e+04 
1.054731367319263e+04 
1.066207736659266e+04 
1.066207736659266e+04 
1.077826118896721e+04 
1.077826118896721e+04 
1.089558524206779e+04 
1.089558524206779e+04 
1.101376688060127e+04 
1.101376688060127e+04 
1.113252139317682e+04 
1.113252139317682e+04 
1.125156268823250e+04 
    </DataArray>
    <DataArray type="Float64" Name="phi_2" format="ascii">
-1.756479085253758e+05 
-1.756470168857228e+05 
-1.756470168857228e+05 
-1.756443460323715e+05 
-1.756443460323715e+05 
-1.756399081202142e+05 
-1.756399081202142e+05 
-1.756337232685466e+05 
-1.756337232685466e+05 
-1.756258193559305e+05 
-1.756258193559305e+05 
-1.756162317391831e+05 
-1.756162317391831e+05 
-1.756050029024020e+05 
-1.756050029024020e+05 
-1.755921820432508e+05 
-1.755921820432508e+05 
-1.755778246047970e+05 
-1.755778246047970e+05 
-1.755619917619830e+05 
-1.755619917619830e+05 
-1.755447498723061e+05 
-1.755447498723061e+05 
-1.755261699004933e+05 
-1.755261699004933e+05 
-1.755063268268850e+05 
-1.755063268268850e+05 
-1.754852990489193e+05 
-1.754852990489193e+05 
-1.754631677845611e+05 
-1.754631677845611e+05 
-1.754400164857941e+05 
-1.754400164857941e+05 
-1.754159302694244e+05 
-1.754159302694244e+05 
-1.753909953714756e+05 
-1.753909953714756e+05 
-1.753652986304332e+05 
-1.753652986304332e+05 
-1.753389270035531e+05 
-1.753389270035531e+05 
-1.753119671194244e+05 
-1.753119671194244e+05 
-1.752845048689972e+05 
-1.752845048689972e+05 
-1.752566250363702e+05 
-1.752566250363702e+05 
-1.752284109698211e+05 
-1.752284109698211e+05 
-1.751999442927763e+05 
-1.751999442927763e+05 
-1.751713046540093e+05 
-1.751713046540093e+05 
-1.751425695149971e+05 
-1.751425695149971e+05 
-1.751138139750831e+05 
-1.751138139750831e+05 
-1.750851106230905e+05 
-1.750851106230905e+05 
-1.750565294471176e+05 
-1.750565294471176e+05 
-1.750281376738451e+05 
-1.750281376738451e+05 
-1.750000000000000e+05 
    </DataArray>
    <DataArray type="Float64" Name="phiAnalytic_2" format="ascii">
-1.756020099955821e+05 
-1.756011893471895e+05 
-1.756011893471895e+05 
-1.755987310055715e+05 
-1.755987310055715e+05 
-1.755946457463634e+05 
-1.755946457463634e+05 
-1.755889514128608e+05 
-1.755889514128608e+05 
-1.755816727443570e+05 
-1.755816727443570e+05 
-1.755728411406940e+05 
-1.755728411406940e+05 
-1.755624943677014e+05 
-1.755624943677014e+05 
-1.755506762092562e+05 
-1.755506762092562e+05 
-1.755374360725666e+05 
-1.755374360725666e+05 
-1.755228285539434e+05 
-1.755228285539434e+05 
-1.755069129727608e+05 
-1.755069129727608e+05 
-1.754897528815237e+05 
-1.754897528815237e+05 
-1.754714155599614e+05 
-1.754714155599614e+05 
-1.754519715008634e+05 
-1.754519715008634e+05 
-1.754314938950010e+05 
-1.754314938950010e+05 
-1.754100581219484e+05 
-1.754100581219484e+05 
-1.753877412529689e+05 
-1.753877412529689e+05 
-1.753646215714008e+05 
-1.753646215714008e+05 
-1.753407781151818e+05 
-1.753407781151818e+05 
-1.753162902453374e+05 
-1.753162902453374e+05 
-1.752912372434356e+05 
-1.752912372434356e+05 
-1.752656979402237e+05 
-1.752656979402237e+05 
-1.752397503769056e+05 
-1.752397503769056e+05 
-1.752134714998313e+05 
-1.752134714998313e+05 
-1.751869368887457e+05 
-1.751869368887457e+05 
-1.751602205181967e+05 
-1.751602205181967e+05 
-1.751333945512377e+05 
-1.751333945512377e+05 
-1.751065291641702e+05 
-1.751065291641702e+05 
-1.750796924007643e+05 
-1.750796924007643e+05 
-1.750529500541574e+05 
-1.750529500541574e+05 
-1.750263655744611e+05 
-1.750263655744611e+05 
-1.750000000000000e+05 
    </DataArray>
  </PointData>
  <CellData>
    <DataArray type="Float64" Name="Owner" format="ascii">
0.000000000000000e+00 
0.000000000000000e+00 
0.000000000000000e+00 
0.000000000000000e+00 
0.000000000000000e+00 
0.000000000000000e+00 
0.000000000000000e+00 
0.000000000000000e+00 
0.000000000000000e+00 
0.000000000000000e+00 
0.000000000000000e+00 
0.000000000000000e+00 
0.000000000000000e+00 
0.000000000000000e+00 
0.000000000000000e+00 
0.000000000000000e+00 
0.000000000000000e+00 
0.000000000000000e+00 
0.000000000000000e+00 
0.000000000000000e+00 
0.000000000000000e+00 
0.000000000000000e+00 
0.000000000000000e+00 
0.000000000000000e+00 
0.000000000000000e+00 
0.000000000000000e+00 
0.000000000000000e+00 
0.000000000000000e+00 
0.000000000000000e+00 
0.000000000000000e+00 
0.000000000000000e+00 
0.000000000000000e+00 
0.000000000000000e+00 
0.000000000000000e+00 
0.000000000000000e+00 
0.000000000000000e+00 
0.000000000000000e+00 
0.000000000000000e+00 
0.000000000000000e+00 
0.000000000000000e+00 
0.000000000000000e+00 
0.000000000000000e+00 
0.000000000000000e+00 
0.000000000000000e+00 
0.000000000000000e+00 
0.000000000000000e+00 
0.000000000000000e+00 
0.000000000000000e+00 
0.000000000000000e+00 
0.000000000000000e+00 
0.000000000000000e+00 
0.000000000000000e+00 
0.000000000000000e+00 
0.000000000000000e+00 
0.000000000000000e+00 
0.000000000000000e+00 
0.000000000000000e+00 
0.000000000000000e+00 
0.000000000000000e+00 
0.000000000000000e+00 
0.000000000000000e+00 
0.000000000000000e+00 
0.000000000000000e+00 
0.000000000000000e+00 
    </DataArray>
  </CellData>
</Piece>
</UnstructuredGrid>
</VTKFile>
