<?xml version="1.0" ?> 
<!-- 
# vtk DataFile Version 3.0
-->
<VTKFile type="UnstructuredGrid" version="0.1" compressor="vtkZLibDataCompressor" byte_order="LittleEndian">
<UnstructuredGrid>
<FieldData>
<DataArray type="Float32" Name="TIME" NumberOfTuples="1" format="ascii">446.42857143</DataArray>
</FieldData>
<Piece NumberOfPoints="64" NumberOfCells="32" >
  <Points>
    <DataArray type="Float64" NumberOfComponents="3" format="ascii">
0.000000000000000e+00 0.000000000000000e+00 0.000000000000000e+00 
3.125000000000000e-05 0.000000000000000e+00 0.000000000000000e+00 
3.125000000000000e-05 0.000000000000000e+00 0.000000000000000e+00 
6.250000000000000e-05 0.000000000000000e+00 0.000000000000000e+00 
6.250000000000000e-05 0.000000000000000e+00 0.000000000000000e+00 
9.375000000000000e-05 0.000000000000000e+00 0.000000000000000e+00 
9.375000000000000e-05 0.000000000000000e+00 0.000000000000000e+00 
1.250000000000000e-04 0.000000000000000e+00 0.000000000000000e+00 
1.250000000000000e-04 0.000000000000000e+00 0.000000000000000e+00 
1.562500000000000e-04 0.000000000000000e+00 0.000000000000000e+00 
1.562500000000000e-04 0.000000000000000e+00 0.000000000000000e+00 
1.875000000000000e-04 0.000000000000000e+00 0.000000000000000e+00 
1.875000000000000e-04 0.000000000000000e+00 0.000000000000000e+00 
2.187500000000000e-04 0.000000000000000e+00 0.000000000000000e+00 
2.187500000000000e-04 0.000000000000000e+00 0.000000000000000e+00 
2.500000000000000e-04 0.000000000000000e+00 0.000000000000000e+00 
2.500000000000000e-04 0.000000000000000e+00 0.000000000000000e+00 
2.812500000000000e-04 0.000000000000000e+00 0.000000000000000e+00 
2.812500000000000e-04 0.000000000000000e+00 0.000000000000000e+00 
3.125000000000000e-04 0.000000000000000e+00 0.000000000000000e+00 
3.125000000000000e-04 0.000000000000000e+00 0.000000000000000e+00 
3.437500000000000e-04 0.000000000000000e+00 0.000000000000000e+00 
3.437500000000000e-04 0.000000000000000e+00 0.000000000000000e+00 
3.750000000000000e-04 0.000000000000000e+00 0.000000000000000e+00 
3.750000000000000e-04 0.000000000000000e+00 0.000000000000000e+00 
4.062500000000000e-04 0.000000000000000e+00 0.000000000000000e+00 
4.062500000000000e-04 0.000000000000000e+00 0.000000000000000e+00 
4.375000000000000e-04 0.000000000000000e+00 0.000000000000000e+00 
4.375000000000000e-04 0.000000000000000e+00 0.000000000000000e+00 
4.687500000000000e-04 0.000000000000000e+00 0.000000000000000e+00 
4.687500000000000e-04 0.000000000000000e+00 0.000000000000000e+00 
5.000000000000000e-04 0.000000000000000e+00 0.000000000000000e+00 
5.000000000000000e-04 0.000000000000000e+00 0.000000000000000e+00 
5.312500000000000e-04 0.000000000000000e+00 0.000000000000000e+00 
5.312500000000000e-04 0.000000000000000e+00 0.000000000000000e+00 
5.625000000000001e-04 0.000000000000000e+00 0.000000000000000e+00 
5.625000000000001e-04 0.000000000000000e+00 0.000000000000000e+00 
5.937500000000000e-04 0.000000000000000e+00 0.000000000000000e+00 
5.937500000000000e-04 0.000000000000000e+00 0.000000000000000e+00 
6.250000000000000e-04 0.000000000000000e+00 0.000000000000000e+00 
6.250000000000000e-04 0.000000000000000e+00 0.000000000000000e+00 
6.562500000000000e-04 0.000000000000000e+00 0.000000000000000e+00 
6.562500000000000e-04 0.000000000000000e+00 0.000000000000000e+00 
6.875000000000000e-04 0.000000000000000e+00 0.000000000000000e+00 
6.875000000000000e-04 0.000000000000000e+00 0.000000000000000e+00 
7.187500000000000e-04 0.000000000000000e+00 0.000000000000000e+00 
7.187500000000000e-04 0.000000000000000e+00 0.000000000000000e+00 
7.500000000000000e-04 0.000000000000000e+00 0.000000000000000e+00 
7.500000000000000e-04 0.000000000000000e+00 0.000000000000000e+00 
7.812500000000000e-04 0.000000000000000e+00 0.000000000000000e+00 
7.812500000000000e-04 0.000000000000000e+00 0.000000000000000e+00 
8.125000000000001e-04 0.000000000000000e+00 0.000000000000000e+00 
8.125000000000001e-04 0.000000000000000e+00 0.000000000000000e+00 
8.437500000000000e-04 0.000000000000000e+00 0.000000000000000e+00 
8.437500000000000e-04 0.000000000000000e+00 0.000000000000000e+00 
8.750000000000000e-04 0.000000000000000e+00 0.000000000000000e+00 
8.750000000000000e-04 0.000000000000000e+00 0.000000000000000e+00 
9.062500000000000e-04 0.000000000000000e+00 0.000000000000000e+00 
9.062500000000000e-04 0.000000000000000e+00 0.000000000000000e+00 
9.375000000000000e-04 0.000000000000000e+00 0.000000000000000e+00 
9.375000000000000e-04 0.000000000000000e+00 0.000000000000000e+00 
9.687500000000000e-04 0.000000000000000e+00 0.000000000000000e+00 
9.687500000000000e-04 0.000000000000000e+00 0.000000000000000e+00 
1.000000000000000e-03 0.000000000000000e+00 0.000000000000000e+00 
    </DataArray>
  </Points>

  <Cells>
    <DataArray type="Int32" Name="connectivity" format="ascii">
0 1 2 3 4 5 6 7 8 9 10 11 12 13 14 15 16 17 18 19 20 21 22 23 24 25 26 27 28 29 30 31 32 33 34 35 36 37 38 39 40 41 42 43 44 45 46 47 48 49 50 51 52 53 54 55 56 57 58 59 60 61 62 63     </DataArray>
    <DataArray type="Int32" Name="offsets" format="ascii">
2 4 6 8 10 12 14 16 18 20 22 24 26 28 30 32 34 36 38 40 42 44 46 48 50 52 54 56 58 60 62 64     </DataArray>
    <DataArray type="UInt8" Name="types" format="ascii">
3 3 3 3 3 3 3 3 3 3 3 3 3 3 3 3 3 3 3 3 3 3 3 3 3 3 3 3 3 3 3 3     </DataArray>
  </Cells>

  <PointData>
    <DataArray type="Float64" Name="phi_1" format="ascii">
5.400821688936570e+03 
5.407783571481673e+03 
5.407783571481673e+03 
5.428654291403171e+03 
5.428654291403171e+03 
5.463389060275773e+03 
5.463389060275773e+03 
5.511913214205990e+03 
5.511913214205990e+03 
5.574122192796805e+03 
5.574122192796805e+03 
5.649881517010669e+03 
5.649881517010669e+03 
5.739026772817806e+03 
5.739026772817806e+03 
5.841363608967395e+03 
5.841363608967395e+03 
5.956667758326525e+03 
5.956667758326525e+03 
6.084685093035528e+03 
6.084685093035528e+03 
6.225131724218259e+03 
6.225131724218259e+03 
6.377694157206623e+03 
6.377694157206623e+03 
6.542029513207041e+03 
6.542029513207041e+03 
6.717765828082845e+03 
6.717765828082845e+03 
6.904502438474160e+03 
6.904502438474160e+03 
7.101810464823219e+03 
7.101810464823219e+03 
7.309233400032920e+03 
7.309233400032920e+03 
7.526287811496110e+03 
7.526287811496110e+03 
7.752464162912311e+03 
7.752464162912311e+03 
7.987227761395543e+03 
7.987227761395543e+03 
8.230019832103479e+03 
8.230019832103479e+03 
8.480258727536353e+03 
8.480258727536353e+03 
8.737341251863978e+03 
8.737341251863978e+03 
9.000644173484119e+03 
9.000644173484119e+03 
9.269525638170737e+03 
9.269525638170737e+03 
9.543327552959043e+03 
9.543327552959043e+03 
9.821374858251038e+03 
9.821374858251038e+03 
1.010298711225591e+04 
1.010298711225591e+04 
1.038744393508235e+04 
1.038744393508235e+04 
1.067412555074964e+04 
1.067412555074964e+04 
1.096199099619624e+04 
1.096199099619624e+04 
1.125156268823250e+04 
    </DataArray>
    <DataArray type="Float64" Name="phiAnalytic_1" format="ascii">
5.586969308879824e+03 
5.593781480012021e+03 
5.593781480012021e+03 
5.614201822132851e+03 
5.614201822132851e+03 
5.648181855181258e+03 
5.648181855181258e+03 
5.695640891640517e+03 
5.695640891640517e+03 
5.756466205521925e+03 
5.756466205521925e+03 
5.830513269145265e+03 
5.830513269145265e+03 
5.917606057898663e+03 
5.917606057898663e+03 
6.017537423183466e+03 
6.017537423183466e+03 
6.130069533752236e+03 
6.130069533752236e+03 
6.254934385625627e+03 
6.254934385625627e+03 
6.391834380724315e+03 
6.391834380724315e+03 
6.540442974272657e+03 
6.540442974272657e+03 
6.700405390919657e+03 
6.700405390919657e+03 
6.871339409379302e+03 
6.871339409379302e+03 
7.052836215216284e+03 
7.052836215216284e+03 
7.244461321195041e+03 
7.244461321195041e+03 
7.445755554371621e+03 
7.445755554371621e+03 
7.656236108841082e+03 
7.656236108841082e+03 
7.875397662761126e+03 
7.875397662761126e+03 
8.102713557958816e+03 
8.102713557958816e+03 
8.337637040095960e+03 
8.337637040095960e+03 
8.579602557024653e+03 
8.579602557024653e+03 
8.828027112612539e+03 
8.828027112612539e+03 
9.082311672963378e+03 
9.082311672963378e+03 
9.341842621607731e+03 
9.341842621607731e+03 
9.605993259896884e+03 
9.605993259896884e+03 
9.874125348506195e+03 
9.874125348506195e+03 
1.014559068564744e+04 
1.014559068564744e+04 
1.041973271730829e+04 
1.041973271730829e+04 
1.069588817458641e+04 
1.069588817458641e+04 
1.097338873296919e+04 
1.097338873296919e+04 
1.125156268823250e+04 
    </DataArray>
    <DataArray type="Float64" Name="phi_2" format="ascii">
-1.768193440621585e+05 
-1.768161494488448e+05 
-1.768161494488448e+05 
-1.768065970864289e+05 
-1.768065970864289e+05 
-1.767907805174176e+05 
-1.767907805174176e+05 
-1.767688527319288e+05 
-1.767688527319288e+05 
-1.767410219762086e+05 
-1.767410219762086e+05 
-1.767075462253893e+05 
-1.767075462253893e+05 
-1.766687266212587e+05 
-1.766687266212587e+05 
-1.766249002110930e+05 
-1.766249002110930e+05 
-1.765764323310161e+05 
-1.765764323310161e+05 
-1.765237089593900e+05 
-1.765237089593900e+05 
-1.764671293274410e+05 
-1.764671293274410e+05 
-1.764070990221318e+05 
-1.764070990221318e+05 
-1.763440237569745e+05 
-1.763440237569745e+05 
-1.762783039262548e+05 
-1.762783039262548e+05 
-1.762103300019733e+05 
-1.762103300019733e+05 
-1.761404787841966e+05 
-1.761404787841966e+05 
-1.760691104763714e+05 
-1.760691104763714e+05 
-1.759965665281125e+05 
-1.759965665281125e+05 
-1.759231681685746e+05 
-1.759231681685746e+05 
-1.758492155426512e+05 
-1.758492155426512e+05 
-1.757749873583948e+05 
-1.757749873583948e+05 
-1.757007409556189e+05 
-1.757007409556189e+05 
-1.756267127109847e+05 
-1.756267127109847e+05 
-1.755531187029835e+05 
-1.755531187029835e+05 
-1.754801555685698e+05 
-1.754801555685698e+05 
-1.754080014961025e+05 
-1.754080014961025e+05 
-1.753368172970406e+05 
-1.753368172970406e+05 
-1.752667475504018e+05 
-1.752667475504018e+05 
-1.751979216674197e+05 
-1.751979216674197e+05 
-1.751304552905709e+05 
-1.751304552905709e+05 
-1.750644504255362e+05 
-1.750644504255362e+05 
-1.750000000000000e+05 
    </DataArray>
    <DataArray type="Float64" Name="phiAnalytic_2" format="ascii">
-1.767353470050120e+05 
-1.767323264311125e+05 
-1.767323264311125e+05 
-1.767232938712448e+05 
-1.767232938712448e+05 
-1.767083360056742e+05 
-1.767083360056742e+05 
-1.766875946638795e+05 
-1.766875946638795e+05 
-1.766612630261594e+05 
-1.766612630261594e+05 
-1.766295806062971e+05 
-1.766295806062971e+05 
-1.765928272814055e+05 
-1.765928272814055e+05 
-1.765513166676125e+05 
-1.765513166676125e+05 
-1.765053891485769e+05 
-1.765053891485769e+05 
-1.764554048499183e+05 
-1.764554048499183e+05 
-1.764017368206075e+05 
-1.764017368206075e+05 
-1.763447646376191e+05 
-1.763447646376191e+05 
-1.762848685984797e+05 
-1.762848685984797e+05 
-1.762224246131570e+05 
-1.762224246131570e+05 
-1.761577998564513e+05 
-1.761577998564513e+05 
-1.760913491978661e+05 
-1.760913491978661e+05 
-1.760234123897324e+05 
-1.760234123897324e+05 
-1.759543119668723e+05 
-1.759543119668723e+05 
-1.758843517921033e+05 
-1.758843517921033e+05 
-1.758138161705638e+05 
-1.758138161705638e+05 
-1.757429694509501e+05 
-1.757429694509501e+05 
-1.756720560319325e+05 
-1.756720560319325e+05 
-1.756013006959032e+05 
-1.756013006959032e+05 
-1.755309091985786e+05 
-1.755309091985786e+05 
-1.754610690508113e+05 
-1.754610690508113e+05 
-1.753919504374346e+05 
-1.753919504374346e+05 
-1.753237072264645e+05 
-1.753237072264645e+05 
-1.752564780300904e+05 
-1.752564780300904e+05 
-1.751903872863253e+05 
-1.751903872863253e+05 
-1.751255463368100e+05 
-1.751255463368100e+05 
-1.750620544820198e+05 
-1.750620544820198e+05 
-1.750000000000000e+05 
    </DataArray>
  </PointData>
  <CellData>
    <DataArray type="Float64" Name="Owner" format="ascii">
0.000000000000000e+00 
0.000000000000000e+00 
0.000000000000000e+00 
0.000000000000000e+00 
0.000000000000000e+00 
0.000000000000000e+00 
0.000000000000000e+00 
0.000000000000000e+00 
0.000000000000000e+00 
0.000000000000000e+00 
0.000000000000000e+00 
0.000000000000000e+00 
0.000000000000000e+00 
0.000000000000000e+00 
0.000000000000000e+00 
0.000000000000000e+00 
0.000000000000000e+00 
0.000000000000000e+00 
0.000000000000000e+00 
0.000000000000000e+00 
0.000000000000000e+00 
0.000000000000000e+00 
0.000000000000000e+00 
0.000000000000000e+00 
0.000000000000000e+00 
0.000000000000000e+00 
0.000000000000000e+00 
0.000000000000000e+00 
0.000000000000000e+00 
0.000000000000000e+00 
0.000000000000000e+00 
0.000000000000000e+00 
0.000000000000000e+00 
0.000000000000000e+00 
0.000000000000000e+00 
0.000000000000000e+00 
0.000000000000000e+00 
0.000000000000000e+00 
0.000000000000000e+00 
0.000000000000000e+00 
0.000000000000000e+00 
0.000000000000000e+00 
0.000000000000000e+00 
0.000000000000000e+00 
0.000000000000000e+00 
0.000000000000000e+00 
0.000000000000000e+00 
0.000000000000000e+00 
0.000000000000000e+00 
0.000000000000000e+00 
0.000000000000000e+00 
0.000000000000000e+00 
0.000000000000000e+00 
0.000000000000000e+00 
0.000000000000000e+00 
0.000000000000000e+00 
0.000000000000000e+00 
0.000000000000000e+00 
0.000000000000000e+00 
0.000000000000000e+00 
0.000000000000000e+00 
0.000000000000000e+00 
0.000000000000000e+00 
0.000000000000000e+00 
    </DataArray>
  </CellData>
</Piece>
</UnstructuredGrid>
</VTKFile>
