<?xml version="1.0" ?> 
<!-- 
# vtk DataFile Version 3.0
-->
<VTKFile type="UnstructuredGrid" version="0.1" compressor="vtkZLibDataCompressor" byte_order="LittleEndian">
<UnstructuredGrid>
<FieldData>
<DataArray type="Float32" Name="TIME" NumberOfTuples="1" format="ascii">558.0357142875</DataArray>
</FieldData>
<Piece NumberOfPoints="64" NumberOfCells="32" >
  <Points>
    <DataArray type="Float64" NumberOfComponents="3" format="ascii">
0.000000000000000e+00 0.000000000000000e+00 0.000000000000000e+00 
3.125000000000000e-05 0.000000000000000e+00 0.000000000000000e+00 
3.125000000000000e-05 0.000000000000000e+00 0.000000000000000e+00 
6.250000000000000e-05 0.000000000000000e+00 0.000000000000000e+00 
6.250000000000000e-05 0.000000000000000e+00 0.000000000000000e+00 
9.375000000000000e-05 0.000000000000000e+00 0.000000000000000e+00 
9.375000000000000e-05 0.000000000000000e+00 0.000000000000000e+00 
1.250000000000000e-04 0.000000000000000e+00 0.000000000000000e+00 
1.250000000000000e-04 0.000000000000000e+00 0.000000000000000e+00 
1.562500000000000e-04 0.000000000000000e+00 0.000000000000000e+00 
1.562500000000000e-04 0.000000000000000e+00 0.000000000000000e+00 
1.875000000000000e-04 0.000000000000000e+00 0.000000000000000e+00 
1.875000000000000e-04 0.000000000000000e+00 0.000000000000000e+00 
2.187500000000000e-04 0.000000000000000e+00 0.000000000000000e+00 
2.187500000000000e-04 0.000000000000000e+00 0.000000000000000e+00 
2.500000000000000e-04 0.000000000000000e+00 0.000000000000000e+00 
2.500000000000000e-04 0.000000000000000e+00 0.000000000000000e+00 
2.812500000000000e-04 0.000000000000000e+00 0.000000000000000e+00 
2.812500000000000e-04 0.000000000000000e+00 0.000000000000000e+00 
3.125000000000000e-04 0.000000000000000e+00 0.000000000000000e+00 
3.125000000000000e-04 0.000000000000000e+00 0.000000000000000e+00 
3.437500000000000e-04 0.000000000000000e+00 0.000000000000000e+00 
3.437500000000000e-04 0.000000000000000e+00 0.000000000000000e+00 
3.750000000000000e-04 0.000000000000000e+00 0.000000000000000e+00 
3.750000000000000e-04 0.000000000000000e+00 0.000000000000000e+00 
4.062500000000000e-04 0.000000000000000e+00 0.000000000000000e+00 
4.062500000000000e-04 0.000000000000000e+00 0.000000000000000e+00 
4.375000000000000e-04 0.000000000000000e+00 0.000000000000000e+00 
4.375000000000000e-04 0.000000000000000e+00 0.000000000000000e+00 
4.687500000000000e-04 0.000000000000000e+00 0.000000000000000e+00 
4.687500000000000e-04 0.000000000000000e+00 0.000000000000000e+00 
5.000000000000000e-04 0.000000000000000e+00 0.000000000000000e+00 
5.000000000000000e-04 0.000000000000000e+00 0.000000000000000e+00 
5.312500000000000e-04 0.000000000000000e+00 0.000000000000000e+00 
5.312500000000000e-04 0.000000000000000e+00 0.000000000000000e+00 
5.625000000000001e-04 0.000000000000000e+00 0.000000000000000e+00 
5.625000000000001e-04 0.000000000000000e+00 0.000000000000000e+00 
5.937500000000000e-04 0.000000000000000e+00 0.000000000000000e+00 
5.937500000000000e-04 0.000000000000000e+00 0.000000000000000e+00 
6.250000000000000e-04 0.000000000000000e+00 0.000000000000000e+00 
6.250000000000000e-04 0.000000000000000e+00 0.000000000000000e+00 
6.562500000000000e-04 0.000000000000000e+00 0.000000000000000e+00 
6.562500000000000e-04 0.000000000000000e+00 0.000000000000000e+00 
6.875000000000000e-04 0.000000000000000e+00 0.000000000000000e+00 
6.875000000000000e-04 0.000000000000000e+00 0.000000000000000e+00 
7.187500000000000e-04 0.000000000000000e+00 0.000000000000000e+00 
7.187500000000000e-04 0.000000000000000e+00 0.000000000000000e+00 
7.500000000000000e-04 0.000000000000000e+00 0.000000000000000e+00 
7.500000000000000e-04 0.000000000000000e+00 0.000000000000000e+00 
7.812500000000000e-04 0.000000000000000e+00 0.000000000000000e+00 
7.812500000000000e-04 0.000000000000000e+00 0.000000000000000e+00 
8.125000000000001e-04 0.000000000000000e+00 0.000000000000000e+00 
8.125000000000001e-04 0.000000000000000e+00 0.000000000000000e+00 
8.437500000000000e-04 0.000000000000000e+00 0.000000000000000e+00 
8.437500000000000e-04 0.000000000000000e+00 0.000000000000000e+00 
8.750000000000000e-04 0.000000000000000e+00 0.000000000000000e+00 
8.750000000000000e-04 0.000000000000000e+00 0.000000000000000e+00 
9.062500000000000e-04 0.000000000000000e+00 0.000000000000000e+00 
9.062500000000000e-04 0.000000000000000e+00 0.000000000000000e+00 
9.375000000000000e-04 0.000000000000000e+00 0.000000000000000e+00 
9.375000000000000e-04 0.000000000000000e+00 0.000000000000000e+00 
9.687500000000000e-04 0.000000000000000e+00 0.000000000000000e+00 
9.687500000000000e-04 0.000000000000000e+00 0.000000000000000e+00 
1.000000000000000e-03 0.000000000000000e+00 0.000000000000000e+00 
    </DataArray>
  </Points>

  <Cells>
    <DataArray type="Int32" Name="connectivity" format="ascii">
0 1 2 3 4 5 6 7 8 9 10 11 12 13 14 15 16 17 18 19 20 21 22 23 24 25 26 27 28 29 30 31 32 33 34 35 36 37 38 39 40 41 42 43 44 45 46 47 48 49 50 51 52 53 54 55 56 57 58 59 60 61 62 63     </DataArray>
    <DataArray type="Int32" Name="offsets" format="ascii">
2 4 6 8 10 12 14 16 18 20 22 24 26 28 30 32 34 36 38 40 42 44 46 48 50 52 54 56 58 60 62 64     </DataArray>
    <DataArray type="UInt8" Name="types" format="ascii">
3 3 3 3 3 3 3 3 3 3 3 3 3 3 3 3 3 3 3 3 3 3 3 3 3 3 3 3 3 3 3 3     </DataArray>
  </Cells>

  <PointData>
    <DataArray type="Float64" Name="phi_1" format="ascii">
6.564528365434290e+03 
6.570154962891829e+03 
6.570154962891829e+03 
6.587021605379921e+03 
6.587021605379921e+03 
6.615088865792746e+03 
6.615088865792746e+03 
6.654291107633047e+03 
6.654291107633047e+03 
6.704536598668103e+03 
6.704536598668103e+03 
6.765707671287572e+03 
6.765707671287572e+03 
6.837660930722048e+03 
6.837660930722048e+03 
6.920227512502277e+03 
6.920227512502277e+03 
7.013213390694769e+03 
7.013213390694769e+03 
7.116399738529216e+03 
7.116399738529216e+03 
7.229543343037376e+03 
7.229543343037376e+03 
7.352377075266598e+03 
7.352377075266598e+03 
7.484610417494303e+03 
7.484610417494303e+03 
7.625930048689388e+03 
7.625930048689388e+03 
7.776000489228790e+03 
7.776000489228790e+03 
7.934464805587769e+03 
7.934464805587769e+03 
8.100945375408845e+03 
8.100945375408845e+03 
8.275044713005524e+03 
8.275044713005524e+03 
8.456346354904612e+03 
8.456346354904612e+03 
8.644415804920252e+03 
8.644415804920252e+03 
8.838801536672283e+03 
8.838801536672283e+03 
9.039036055393888e+03 
9.039036055393888e+03 
9.244637003901302e+03 
9.244637003901302e+03 
9.455108359487047e+03 
9.455108359487047e+03 
9.669941532756546e+03 
9.669941532756546e+03 
9.888617067069350e+03 
9.888617067069350e+03 
1.011060428476886e+04 
1.011060428476886e+04 
1.033536887776027e+04 
1.033536887776027e+04 
1.056235069068016e+04 
1.056235069068016e+04 
1.079105413665263e+04 
1.079105413665263e+04 
1.102071376805711e+04 
1.102071376805711e+04 
1.125156268823250e+04 
    </DataArray>
    <DataArray type="Float64" Name="phiAnalytic_1" format="ascii">
6.756014414786769e+03 
6.761428117962648e+03 
6.761428117962648e+03 
6.777656215312639e+03 
6.777656215312639e+03 
6.804659701003888e+03 
6.804659701003888e+03 
6.842373667588591e+03 
6.842373667588591e+03 
6.890707459204448e+03 
6.890707459204448e+03 
6.949544885634818e+03 
6.949544885634818e+03 
7.018744496806772e+03 
7.018744496806772e+03 
7.098139917182937e+03 
7.098139917182937e+03 
7.187540239379580e+03 
7.187540239379580e+03 
7.286730476218354e+03 
7.286730476218354e+03 
7.395472070292911e+03 
7.395472070292911e+03 
7.513503460003615e+03 
7.513503460003615e+03 
7.640540700884463e+03 
7.640540700884463e+03 
7.776278140915865e+03 
7.776278140915865e+03 
7.920389148385347e+03 
7.920389148385347e+03 
8.072526890726454e+03 
8.072526890726454e+03 
8.232325162633630e+03 
8.232325162633630e+03 
8.399399261619021e+03 
8.399399261619021e+03 
8.573346909046199e+03 
8.573346909046199e+03 
8.753749214546389e+03 
8.753749214546389e+03 
8.940171681595704e+03 
8.940171681595704e+03 
9.132165251908109e+03 
9.132165251908109e+03 
9.329267386178912e+03 
9.329267386178912e+03 
9.531003178598407e+03 
9.531003178598407e+03 
9.736886502446143e+03 
9.736886502446143e+03 
9.946421183973325e+03 
9.946421183973325e+03 
1.015910220168566e+04 
1.015910220168566e+04 
1.037441690805178e+04 
1.037441690805178e+04 
1.059184627058437e+04 
1.059184627058437e+04 
1.081086612917275e+04 
1.081086612917275e+04 
1.103094846648776e+04 
1.103094846648776e+04 
1.125156268823250e+04 
    </DataArray>
    <DataArray type="Float64" Name="phi_2" format="ascii">
-1.763356531237226e+05 
-1.763335287786555e+05 
-1.763335287786555e+05 
-1.763271716054056e+05 
-1.763271716054056e+05 
-1.763166288687414e+05 
-1.763166288687414e+05 
-1.763019782866361e+05 
-1.763019782866361e+05 
-1.762833264920809e+05 
-1.762833264920809e+05 
-1.762608069697253e+05 
-1.762608069697253e+05 
-1.762345775497843e+05 
-1.762345775497843e+05 
-1.762048175551783e+05 
-1.762048175551783e+05 
-1.761717247053341e+05 
-1.761717247053341e+05 
-1.761355118814874e+05 
-1.761355118814874e+05 
-1.760964038541883e+05 
-1.760964038541883e+05 
-1.760546340649319e+05 
-1.760546340649319e+05 
-1.760104415415657e+05 
-1.760104415415657e+05 
-1.759640680126066e+05 
-1.759640680126066e+05 
-1.759157552700758e+05 
-1.759157552700758e+05 
-1.758657428149971e+05 
-1.758657428149971e+05 
-1.758142658051949e+05 
-1.758142658051949e+05 
-1.757615533121157e+05 
-1.757615533121157e+05 
-1.757078268824756e+05 
-1.757078268824756e+05 
-1.756532993917942e+05 
-1.756532993917942e+05 
-1.755981741703147e+05 
-1.755981741703147e+05 
-1.755426443772970e+05 
-1.755426443772970e+05 
-1.754868925969419e+05 
-1.754868925969419e+05 
-1.754310906281477e+05 
-1.754310906281477e+05 
-1.753753994399643e+05 
-1.753753994399643e+05 
-1.753199692671459e+05 
-1.753199692671459e+05 
-1.752649398163076e+05 
-1.752649398163076e+05 
-1.752104405758556e+05 
-1.752104405758556e+05 
-1.751565911501240e+05 
-1.751565911501240e+05 
-1.751035018150069e+05 
-1.751035018150069e+05 
-1.750512734949703e+05 
-1.750512734949703e+05 
-1.750000000000000e+05 
    </DataArray>
    <DataArray type="Float64" Name="phiAnalytic_2" format="ascii">
-1.762643809060346e+05 
-1.762623953837704e+05 
-1.762623953837704e+05 
-1.762564531005345e+05 
-1.762564531005345e+05 
-1.762465966305917e+05 
-1.762465966305917e+05 
-1.762328960209177e+05 
-1.762328960209177e+05 
-1.762154474644826e+05 
-1.762154474644826e+05 
-1.761943715171058e+05 
-1.761943715171058e+05 
-1.761698109261126e+05 
-1.761698109261126e+05 
-1.761419281505912e+05 
-1.761419281505912e+05 
-1.761109026597804e+05 
-1.761109026597804e+05 
-1.760769280979593e+05 
-1.760769280979593e+05 
-1.760402094015215e+05 
-1.760402094015215e+05 
-1.760009599473423e+05 
-1.760009599473423e+05 
-1.759593988019830e+05 
-1.759593988019830e+05 
-1.759157481296803e+05 
-1.759157481296803e+05 
-1.758702308044199e+05 
-1.758702308044199e+05 
-1.758230682585817e+05 
-1.758230682585817e+05 
-1.757744785884000e+05 
-1.757744785884000e+05 
-1.757246749253798e+05 
-1.757246749253798e+05 
-1.756738640732154e+05 
-1.756738640732154e+05 
-1.756222454018794e+05 
-1.756222454018794e+05 
-1.755700099844362e+05 
-1.755700099844362e+05 
-1.755173399577170e+05 
-1.755173399577170e+05 
-1.754644080851235e+05 
-1.754644080851235e+05 
-1.754113774983000e+05 
-1.754113774983000e+05 
-1.753584015939933e+05 
-1.753584015939933e+05 
-1.753056240628875e+05 
-1.753056240628875e+05 
-1.752531790283124e+05 
-1.752531790283124e+05 
-1.752011912743089e+05 
-1.752011912743089e+05 
-1.751497765443983e+05 
-1.751497765443983e+05 
-1.750990418944170e+05 
-1.750990418944170e+05 
-1.750490860848371e+05 
-1.750490860848371e+05 
-1.750000000000000e+05 
    </DataArray>
  </PointData>
  <CellData>
    <DataArray type="Float64" Name="Owner" format="ascii">
0.000000000000000e+00 
0.000000000000000e+00 
0.000000000000000e+00 
0.000000000000000e+00 
0.000000000000000e+00 
0.000000000000000e+00 
0.000000000000000e+00 
0.000000000000000e+00 
0.000000000000000e+00 
0.000000000000000e+00 
0.000000000000000e+00 
0.000000000000000e+00 
0.000000000000000e+00 
0.000000000000000e+00 
0.000000000000000e+00 
0.000000000000000e+00 
0.000000000000000e+00 
0.000000000000000e+00 
0.000000000000000e+00 
0.000000000000000e+00 
0.000000000000000e+00 
0.000000000000000e+00 
0.000000000000000e+00 
0.000000000000000e+00 
0.000000000000000e+00 
0.000000000000000e+00 
0.000000000000000e+00 
0.000000000000000e+00 
0.000000000000000e+00 
0.000000000000000e+00 
0.000000000000000e+00 
0.000000000000000e+00 
0.000000000000000e+00 
0.000000000000000e+00 
0.000000000000000e+00 
0.000000000000000e+00 
0.000000000000000e+00 
0.000000000000000e+00 
0.000000000000000e+00 
0.000000000000000e+00 
0.000000000000000e+00 
0.000000000000000e+00 
0.000000000000000e+00 
0.000000000000000e+00 
0.000000000000000e+00 
0.000000000000000e+00 
0.000000000000000e+00 
0.000000000000000e+00 
0.000000000000000e+00 
0.000000000000000e+00 
0.000000000000000e+00 
0.000000000000000e+00 
0.000000000000000e+00 
0.000000000000000e+00 
0.000000000000000e+00 
0.000000000000000e+00 
0.000000000000000e+00 
0.000000000000000e+00 
0.000000000000000e+00 
0.000000000000000e+00 
0.000000000000000e+00 
0.000000000000000e+00 
0.000000000000000e+00 
0.000000000000000e+00 
    </DataArray>
  </CellData>
</Piece>
</UnstructuredGrid>
</VTKFile>
