<?xml version="1.0" ?> 
<!-- 
# vtk DataFile Version 3.0
-->
<VTKFile type="UnstructuredGrid" version="0.1" compressor="vtkZLibDataCompressor" byte_order="LittleEndian">
<UnstructuredGrid>
<FieldData>
<DataArray type="Float32" Name="TIME" NumberOfTuples="1" format="ascii">1116.071428575</DataArray>
</FieldData>
<Piece NumberOfPoints="64" NumberOfCells="32" >
  <Points>
    <DataArray type="Float64" NumberOfComponents="3" format="ascii">
0.000000000000000e+00 0.000000000000000e+00 0.000000000000000e+00 
3.125000000000000e-05 0.000000000000000e+00 0.000000000000000e+00 
3.125000000000000e-05 0.000000000000000e+00 0.000000000000000e+00 
6.250000000000000e-05 0.000000000000000e+00 0.000000000000000e+00 
6.250000000000000e-05 0.000000000000000e+00 0.000000000000000e+00 
9.375000000000000e-05 0.000000000000000e+00 0.000000000000000e+00 
9.375000000000000e-05 0.000000000000000e+00 0.000000000000000e+00 
1.250000000000000e-04 0.000000000000000e+00 0.000000000000000e+00 
1.250000000000000e-04 0.000000000000000e+00 0.000000000000000e+00 
1.562500000000000e-04 0.000000000000000e+00 0.000000000000000e+00 
1.562500000000000e-04 0.000000000000000e+00 0.000000000000000e+00 
1.875000000000000e-04 0.000000000000000e+00 0.000000000000000e+00 
1.875000000000000e-04 0.000000000000000e+00 0.000000000000000e+00 
2.187500000000000e-04 0.000000000000000e+00 0.000000000000000e+00 
2.187500000000000e-04 0.000000000000000e+00 0.000000000000000e+00 
2.500000000000000e-04 0.000000000000000e+00 0.000000000000000e+00 
2.500000000000000e-04 0.000000000000000e+00 0.000000000000000e+00 
2.812500000000000e-04 0.000000000000000e+00 0.000000000000000e+00 
2.812500000000000e-04 0.000000000000000e+00 0.000000000000000e+00 
3.125000000000000e-04 0.000000000000000e+00 0.000000000000000e+00 
3.125000000000000e-04 0.000000000000000e+00 0.000000000000000e+00 
3.437500000000000e-04 0.000000000000000e+00 0.000000000000000e+00 
3.437500000000000e-04 0.000000000000000e+00 0.000000000000000e+00 
3.750000000000000e-04 0.000000000000000e+00 0.000000000000000e+00 
3.750000000000000e-04 0.000000000000000e+00 0.000000000000000e+00 
4.062500000000000e-04 0.000000000000000e+00 0.000000000000000e+00 
4.062500000000000e-04 0.000000000000000e+00 0.000000000000000e+00 
4.375000000000000e-04 0.000000000000000e+00 0.000000000000000e+00 
4.375000000000000e-04 0.000000000000000e+00 0.000000000000000e+00 
4.687500000000000e-04 0.000000000000000e+00 0.000000000000000e+00 
4.687500000000000e-04 0.000000000000000e+00 0.000000000000000e+00 
5.000000000000000e-04 0.000000000000000e+00 0.000000000000000e+00 
5.000000000000000e-04 0.000000000000000e+00 0.000000000000000e+00 
5.312500000000000e-04 0.000000000000000e+00 0.000000000000000e+00 
5.312500000000000e-04 0.000000000000000e+00 0.000000000000000e+00 
5.625000000000001e-04 0.000000000000000e+00 0.000000000000000e+00 
5.625000000000001e-04 0.000000000000000e+00 0.000000000000000e+00 
5.937500000000000e-04 0.000000000000000e+00 0.000000000000000e+00 
5.937500000000000e-04 0.000000000000000e+00 0.000000000000000e+00 
6.250000000000000e-04 0.000000000000000e+00 0.000000000000000e+00 
6.250000000000000e-04 0.000000000000000e+00 0.000000000000000e+00 
6.562500000000000e-04 0.000000000000000e+00 0.000000000000000e+00 
6.562500000000000e-04 0.000000000000000e+00 0.000000000000000e+00 
6.875000000000000e-04 0.000000000000000e+00 0.000000000000000e+00 
6.875000000000000e-04 0.000000000000000e+00 0.000000000000000e+00 
7.187500000000000e-04 0.000000000000000e+00 0.000000000000000e+00 
7.187500000000000e-04 0.000000000000000e+00 0.000000000000000e+00 
7.500000000000000e-04 0.000000000000000e+00 0.000000000000000e+00 
7.500000000000000e-04 0.000000000000000e+00 0.000000000000000e+00 
7.812500000000000e-04 0.000000000000000e+00 0.000000000000000e+00 
7.812500000000000e-04 0.000000000000000e+00 0.000000000000000e+00 
8.125000000000001e-04 0.000000000000000e+00 0.000000000000000e+00 
8.125000000000001e-04 0.000000000000000e+00 0.000000000000000e+00 
8.437500000000000e-04 0.000000000000000e+00 0.000000000000000e+00 
8.437500000000000e-04 0.000000000000000e+00 0.000000000000000e+00 
8.750000000000000e-04 0.000000000000000e+00 0.000000000000000e+00 
8.750000000000000e-04 0.000000000000000e+00 0.000000000000000e+00 
9.062500000000000e-04 0.000000000000000e+00 0.000000000000000e+00 
9.062500000000000e-04 0.000000000000000e+00 0.000000000000000e+00 
9.375000000000000e-04 0.000000000000000e+00 0.000000000000000e+00 
9.375000000000000e-04 0.000000000000000e+00 0.000000000000000e+00 
9.687500000000000e-04 0.000000000000000e+00 0.000000000000000e+00 
9.687500000000000e-04 0.000000000000000e+00 0.000000000000000e+00 
1.000000000000000e-03 0.000000000000000e+00 0.000000000000000e+00 
    </DataArray>
  </Points>

  <Cells>
    <DataArray type="Int32" Name="connectivity" format="ascii">
0 1 2 3 4 5 6 7 8 9 10 11 12 13 14 15 16 17 18 19 20 21 22 23 24 25 26 27 28 29 30 31 32 33 34 35 36 37 38 39 40 41 42 43 44 45 46 47 48 49 50 51 52 53 54 55 56 57 58 59 60 61 62 63     </DataArray>
    <DataArray type="Int32" Name="offsets" format="ascii">
2 4 6 8 10 12 14 16 18 20 22 24 26 28 30 32 34 36 38 40 42 44 46 48 50 52 54 56 58 60 62 64     </DataArray>
    <DataArray type="UInt8" Name="types" format="ascii">
3 3 3 3 3 3 3 3 3 3 3 3 3 3 3 3 3 3 3 3 3 3 3 3 3 3 3 3 3 3 3 3     </DataArray>
  </Cells>

  <PointData>
    <DataArray type="Float64" Name="phi_1" format="ascii">
9.712982956520738e+03 
9.714836056934353e+03 
9.714836056934353e+03 
9.720390896126801e+03 
9.720390896126801e+03 
9.729634098669951e+03 
9.729634098669951e+03 
9.742543407882133e+03 
9.742543407882133e+03 
9.759087739285304e+03 
9.759087739285304e+03 
9.779227255272559e+03 
9.779227255272559e+03 
9.802913460804779e+03 
9.802913460804779e+03 
9.830089319915769e+03 
9.830089319915769e+03 
9.860689392748001e+03 
9.860689392748001e+03 
9.894639992798364e+03 
9.894639992798364e+03 
9.931859363998390e+03 
9.931859363998390e+03 
9.972257877217555e+03 
9.972257877217555e+03 
1.001573824571333e+04 
1.001573824571333e+04 
1.006219575902790e+04 
1.006219575902790e+04 
1.011151853476697e+04 
1.011151853476697e+04 
1.016358778766825e+04 
1.016358778766825e+04 
1.021827811531011e+04 
1.021827811531011e+04 
1.027545779979124e+04 
1.027545779979124e+04 
1.033498912463854e+04 
1.033498912463854e+04 
1.039672870622827e+04 
1.039672870622827e+04 
1.046052783880311e+04 
1.046052783880311e+04 
1.052623285267862e+04 
1.052623285267862e+04 
1.059368548323751e+04 
1.059368548323751e+04 
1.066272325555487e+04 
1.066272325555487e+04 
1.073317986231180e+04 
1.073317986231180e+04 
1.080488561424389e+04 
1.080488561424389e+04 
1.087766766192186e+04 
1.087766766192186e+04 
1.095135111210345e+04 
1.095135111210345e+04 
1.102575682790042e+04 
1.102575682790042e+04 
1.110071167582377e+04 
1.110071167582377e+04 
1.117601218681371e+04 
1.117601218681371e+04 
1.125156268823250e+04 
    </DataArray>
    <DataArray type="Float64" Name="phiAnalytic_1" format="ascii">
9.837417395270231e+03 
9.839120795166198e+03 
9.839120795166198e+03 
9.844226891215456e+03 
9.844226891215456e+03 
9.852723382388060e+03 
9.852723382388060e+03 
9.864589799896990e+03 
9.864589799896990e+03 
9.879797556509126e+03 
9.879797556509126e+03 
9.898310015414292e+03 
9.898310015414292e+03 
9.920082578486359e+03 
9.920082578486359e+03 
9.945062793723861e+03 
9.945062793723861e+03 
9.973190481611229e+03 
9.973190481611229e+03 
1.000439788009629e+04 
1.000439788009629e+04 
1.003860980783471e+04 
1.003860980783471e+04 
1.007574384530823e+04 
1.007574384530823e+04 
1.011571053338017e+04 
1.011571053338017e+04 
1.015841358881012e+04 
1.015841358881012e+04 
1.020375013620839e+04 
1.020375013620839e+04 
1.025161095587167e+04 
1.025161095587167e+04 
1.030188074690253e+04 
1.030188074690253e+04 
1.035443840497929e+04 
1.035443840497929e+04 
1.040915731410668e+04 
1.040915731410668e+04 
1.046590565164477e+04 
1.046590565164477e+04 
1.052454670588115e+04 
1.052454670588115e+04 
1.058493920538129e+04 
1.058493920538129e+04 
1.064693765932385e+04 
1.064693765932385e+04 
1.071039270800076e+04 
1.071039270800076e+04 
1.077515148263791e+04 
1.077515148263791e+04 
1.084105797366949e+04 
1.084105797366949e+04 
1.090795340657881e+04 
1.090795340657881e+04 
1.097567662440020e+04 
1.097567662440020e+04 
1.104406447596042e+04 
1.104406447596042e+04 
1.111295220892431e+04 
1.111295220892431e+04 
1.118217386669788e+04 
1.118217386669788e+04 
1.125156268823250e+04 
    </DataArray>
    <DataArray type="Float64" Name="phi_2" format="ascii">
-1.753644944493206e+05 
-1.753640215405768e+05 
-1.753640215405768e+05 
-1.753626044936679e+05 
-1.753626044936679e+05 
-1.753602483352678e+05 
-1.753602483352678e+05 
-1.753569614056780e+05 
-1.753569614056780e+05 
-1.753527553031429e+05 
-1.753527553031429e+05 
-1.753476448069731e+05 
-1.753476448069731e+05 
-1.753416477805265e+05 
-1.753416477805265e+05 
-1.753347850553562e+05 
-1.753347850553562e+05 
-1.753270802980594e+05 
-1.753270802980594e+05 
-1.753185598615550e+05 
-1.753185598615550e+05 
-1.753092526226726e+05 
-1.753092526226726e+05 
-1.752991898080482e+05 
-1.752991898080482e+05 
-1.752884048104002e+05 
-1.752884048104002e+05 
-1.752769329972877e+05 
-1.752769329972877e+05 
-1.752648115144533e+05 
-1.752648115144533e+05 
-1.752520790858059e+05 
-1.752520790858059e+05 
-1.752387758120300e+05 
-1.752387758120300e+05 
-1.752249429696999e+05 
-1.752249429696999e+05 
-1.752106228126514e+05 
-1.752106228126514e+05 
-1.751958583772159e+05 
-1.751958583772159e+05 
-1.751806932927565e+05 
-1.751806932927565e+05 
-1.751651715987757e+05 
-1.751651715987757e+05 
-1.751493375696810e+05 
-1.751493375696810e+05 
-1.751332355481186e+05 
-1.751332355481186e+05 
-1.751169097875958e+05 
-1.751169097875958e+05 
-1.751004043049814e+05 
-1.751004043049814e+05 
-1.750837627431435e+05 
-1.750837627431435e+05 
-1.750670282444583e+05 
-1.750670282444583e+05 
-1.750502433334174e+05 
-1.750502433334174e+05 
-1.750334498152728e+05 
-1.750334498152728e+05 
-1.750166886645992e+05 
-1.750166886645992e+05 
-1.750000000000000e+05 
    </DataArray>
    <DataArray type="Float64" Name="phiAnalytic_2" format="ascii">
-1.753329396322658e+05 
-1.753325104490257e+05 
-1.753325104490257e+05 
-1.753312243782923e+05 
-1.753312243782923e+05 
-1.753290858476451e+05 
-1.753290858476451e+05 
-1.753261022052341e+05 
-1.753261022052341e+05 
-1.753222836734830e+05 
-1.753222836734830e+05 
-1.753176432851186e+05 
-1.753176432851186e+05 
-1.753121968023470e+05 
-1.753121968023470e+05 
-1.753059626202022e+05 
-1.753059626202022e+05 
-1.752989616552725e+05 
-1.752989616552725e+05 
-1.752912172211648e+05 
-1.752912172211648e+05 
-1.752827548921961e+05 
-1.752827548921961e+05 
-1.752736023568960e+05 
-1.752736023568960e+05 
-1.752637892629718e+05 
-1.752637892629718e+05 
-1.752533470554242e+05 
-1.752533470554242e+05 
-1.752423088095048e+05 
-1.752423088095048e+05 
-1.752307090601887e+05 
-1.752307090601887e+05 
-1.752185836297818e+05 
-1.752185836297818e+05 
-1.752059694552159e+05 
-1.752059694552159e+05 
-1.751929044164901e+05 
-1.751929044164901e+05 
-1.751794271676086e+05 
-1.751794271676086e+05 
-1.751655769712451e+05 
-1.751655769712451e+05 
-1.751513935382312e+05 
-1.751513935382312e+05 
-1.751369168728293e+05 
-1.751369168728293e+05 
-1.751221871246083e+05 
-1.751221871246083e+05 
-1.751072444476026e+05 
-1.751072444476026e+05 
-1.750921288672926e+05 
-1.750921288672926e+05 
-1.750768801558159e+05 
-1.750768801558159e+05 
-1.750615377156877e+05 
-1.750615377156877e+05 
-1.750461404721928e+05 
-1.750461404721928e+05 
-1.750307267745037e+05 
-1.750307267745037e+05 
-1.750153343054773e+05 
-1.750153343054773e+05 
-1.750000000000000e+05 
    </DataArray>
  </PointData>
  <CellData>
    <DataArray type="Float64" Name="Owner" format="ascii">
0.000000000000000e+00 
0.000000000000000e+00 
0.000000000000000e+00 
0.000000000000000e+00 
0.000000000000000e+00 
0.000000000000000e+00 
0.000000000000000e+00 
0.000000000000000e+00 
0.000000000000000e+00 
0.000000000000000e+00 
0.000000000000000e+00 
0.000000000000000e+00 
0.000000000000000e+00 
0.000000000000000e+00 
0.000000000000000e+00 
0.000000000000000e+00 
0.000000000000000e+00 
0.000000000000000e+00 
0.000000000000000e+00 
0.000000000000000e+00 
0.000000000000000e+00 
0.000000000000000e+00 
0.000000000000000e+00 
0.000000000000000e+00 
0.000000000000000e+00 
0.000000000000000e+00 
0.000000000000000e+00 
0.000000000000000e+00 
0.000000000000000e+00 
0.000000000000000e+00 
0.000000000000000e+00 
0.000000000000000e+00 
0.000000000000000e+00 
0.000000000000000e+00 
0.000000000000000e+00 
0.000000000000000e+00 
0.000000000000000e+00 
0.000000000000000e+00 
0.000000000000000e+00 
0.000000000000000e+00 
0.000000000000000e+00 
0.000000000000000e+00 
0.000000000000000e+00 
0.000000000000000e+00 
0.000000000000000e+00 
0.000000000000000e+00 
0.000000000000000e+00 
0.000000000000000e+00 
0.000000000000000e+00 
0.000000000000000e+00 
0.000000000000000e+00 
0.000000000000000e+00 
0.000000000000000e+00 
0.000000000000000e+00 
0.000000000000000e+00 
0.000000000000000e+00 
0.000000000000000e+00 
0.000000000000000e+00 
0.000000000000000e+00 
0.000000000000000e+00 
0.000000000000000e+00 
0.000000000000000e+00 
0.000000000000000e+00 
0.000000000000000e+00 
    </DataArray>
  </CellData>
</Piece>
</UnstructuredGrid>
</VTKFile>
