<?xml version="1.0" ?> 
<!-- 
# vtk DataFile Version 3.0
-->
<VTKFile type="UnstructuredGrid" version="0.1" compressor="vtkZLibDataCompressor" byte_order="LittleEndian">
<UnstructuredGrid>
<FieldData>
<DataArray type="Float32" Name="TIME" NumberOfTuples="1" format="ascii">1041.66666667</DataArray>
</FieldData>
<Piece NumberOfPoints="64" NumberOfCells="32" >
  <Points>
    <DataArray type="Float64" NumberOfComponents="3" format="ascii">
0.000000000000000e+00 0.000000000000000e+00 0.000000000000000e+00 
3.125000000000000e-05 0.000000000000000e+00 0.000000000000000e+00 
3.125000000000000e-05 0.000000000000000e+00 0.000000000000000e+00 
6.250000000000000e-05 0.000000000000000e+00 0.000000000000000e+00 
6.250000000000000e-05 0.000000000000000e+00 0.000000000000000e+00 
9.375000000000000e-05 0.000000000000000e+00 0.000000000000000e+00 
9.375000000000000e-05 0.000000000000000e+00 0.000000000000000e+00 
1.250000000000000e-04 0.000000000000000e+00 0.000000000000000e+00 
1.250000000000000e-04 0.000000000000000e+00 0.000000000000000e+00 
1.562500000000000e-04 0.000000000000000e+00 0.000000000000000e+00 
1.562500000000000e-04 0.000000000000000e+00 0.000000000000000e+00 
1.875000000000000e-04 0.000000000000000e+00 0.000000000000000e+00 
1.875000000000000e-04 0.000000000000000e+00 0.000000000000000e+00 
2.187500000000000e-04 0.000000000000000e+00 0.000000000000000e+00 
2.187500000000000e-04 0.000000000000000e+00 0.000000000000000e+00 
2.500000000000000e-04 0.000000000000000e+00 0.000000000000000e+00 
2.500000000000000e-04 0.000000000000000e+00 0.000000000000000e+00 
2.812500000000000e-04 0.000000000000000e+00 0.000000000000000e+00 
2.812500000000000e-04 0.000000000000000e+00 0.000000000000000e+00 
3.125000000000000e-04 0.000000000000000e+00 0.000000000000000e+00 
3.125000000000000e-04 0.000000000000000e+00 0.000000000000000e+00 
3.437500000000000e-04 0.000000000000000e+00 0.000000000000000e+00 
3.437500000000000e-04 0.000000000000000e+00 0.000000000000000e+00 
3.750000000000000e-04 0.000000000000000e+00 0.000000000000000e+00 
3.750000000000000e-04 0.000000000000000e+00 0.000000000000000e+00 
4.062500000000000e-04 0.000000000000000e+00 0.000000000000000e+00 
4.062500000000000e-04 0.000000000000000e+00 0.000000000000000e+00 
4.375000000000000e-04 0.000000000000000e+00 0.000000000000000e+00 
4.375000000000000e-04 0.000000000000000e+00 0.000000000000000e+00 
4.687500000000000e-04 0.000000000000000e+00 0.000000000000000e+00 
4.687500000000000e-04 0.000000000000000e+00 0.000000000000000e+00 
5.000000000000000e-04 0.000000000000000e+00 0.000000000000000e+00 
5.000000000000000e-04 0.000000000000000e+00 0.000000000000000e+00 
5.312500000000000e-04 0.000000000000000e+00 0.000000000000000e+00 
5.312500000000000e-04 0.000000000000000e+00 0.000000000000000e+00 
5.625000000000001e-04 0.000000000000000e+00 0.000000000000000e+00 
5.625000000000001e-04 0.000000000000000e+00 0.000000000000000e+00 
5.937500000000000e-04 0.000000000000000e+00 0.000000000000000e+00 
5.937500000000000e-04 0.000000000000000e+00 0.000000000000000e+00 
6.250000000000000e-04 0.000000000000000e+00 0.000000000000000e+00 
6.250000000000000e-04 0.000000000000000e+00 0.000000000000000e+00 
6.562500000000000e-04 0.000000000000000e+00 0.000000000000000e+00 
6.562500000000000e-04 0.000000000000000e+00 0.000000000000000e+00 
6.875000000000000e-04 0.000000000000000e+00 0.000000000000000e+00 
6.875000000000000e-04 0.000000000000000e+00 0.000000000000000e+00 
7.187500000000000e-04 0.000000000000000e+00 0.000000000000000e+00 
7.187500000000000e-04 0.000000000000000e+00 0.000000000000000e+00 
7.500000000000000e-04 0.000000000000000e+00 0.000000000000000e+00 
7.500000000000000e-04 0.000000000000000e+00 0.000000000000000e+00 
7.812500000000000e-04 0.000000000000000e+00 0.000000000000000e+00 
7.812500000000000e-04 0.000000000000000e+00 0.000000000000000e+00 
8.125000000000001e-04 0.000000000000000e+00 0.000000000000000e+00 
8.125000000000001e-04 0.000000000000000e+00 0.000000000000000e+00 
8.437500000000000e-04 0.000000000000000e+00 0.000000000000000e+00 
8.437500000000000e-04 0.000000000000000e+00 0.000000000000000e+00 
8.750000000000000e-04 0.000000000000000e+00 0.000000000000000e+00 
8.750000000000000e-04 0.000000000000000e+00 0.000000000000000e+00 
9.062500000000000e-04 0.000000000000000e+00 0.000000000000000e+00 
9.062500000000000e-04 0.000000000000000e+00 0.000000000000000e+00 
9.375000000000000e-04 0.000000000000000e+00 0.000000000000000e+00 
9.375000000000000e-04 0.000000000000000e+00 0.000000000000000e+00 
9.687500000000000e-04 0.000000000000000e+00 0.000000000000000e+00 
9.687500000000000e-04 0.000000000000000e+00 0.000000000000000e+00 
1.000000000000000e-03 0.000000000000000e+00 0.000000000000000e+00 
    </DataArray>
  </Points>

  <Cells>
    <DataArray type="Int32" Name="connectivity" format="ascii">
0 1 2 3 4 5 6 7 8 9 10 11 12 13 14 15 16 17 18 19 20 21 22 23 24 25 26 27 28 29 30 31 32 33 34 35 36 37 38 39 40 41 42 43 44 45 46 47 48 49 50 51 52 53 54 55 56 57 58 59 60 61 62 63     </DataArray>
    <DataArray type="Int32" Name="offsets" format="ascii">
2 4 6 8 10 12 14 16 18 20 22 24 26 28 30 32 34 36 38 40 42 44 46 48 50 52 54 56 58 60 62 64     </DataArray>
    <DataArray type="UInt8" Name="types" format="ascii">
3 3 3 3 3 3 3 3 3 3 3 3 3 3 3 3 3 3 3 3 3 3 3 3 3 3 3 3 3 3 3 3     </DataArray>
  </Cells>

  <PointData>
    <DataArray type="Float64" Name="phi_1" format="ascii">
9.466525963650787e+03 
9.468675852120612e+03 
9.468675852120612e+03 
9.475120341633385e+03 
9.475120341633385e+03 
9.485843916916505e+03 
9.485843916916505e+03 
9.500820760538692e+03 
9.500820760538692e+03 
9.520014814848315e+03 
9.520014814848315e+03 
9.543379868481465e+03 
9.543379868481465e+03 
9.570859667243963e+03 
9.570859667243963e+03 
9.602388049108265e+03 
9.602388049108265e+03 
9.637889103009018e+03 
9.637889103009018e+03 
9.677277351068898e+03 
9.677277351068898e+03 
9.720457953827776e+03 
9.720457953827776e+03 
9.767326937992868e+03 
9.767326937992868e+03 
9.817771446175508e+03 
9.817771446175508e+03 
9.871670008028736e+03 
9.871670008028736e+03 
9.928892832138425e+03 
9.928892832138425e+03 
9.989302117986432e+03 
9.989302117986432e+03 
1.005275238723473e+04 
1.005275238723473e+04 
1.011909083355384e+04 
1.011909083355384e+04 
1.018815769014483e+04 
1.018815769014483e+04 
1.025978661411922e+04 
1.025978661411922e+04 
1.033380508666948e+04 
1.033380508666948e+04 
1.041003482861546e+04 
1.041003482861546e+04 
1.048829222828762e+04 
1.048829222828762e+04 
1.056838878836695e+04 
1.056838878836695e+04 
1.065013156194072e+04 
1.065013156194072e+04 
1.073332368412206e+04 
1.073332368412206e+04 
1.081776459556797e+04 
1.081776459556797e+04 
1.090325146492248e+04 
1.090325146492248e+04 
1.098957615836561e+04 
1.098957615836561e+04 
1.107653892673284e+04 
1.107653892673284e+04 
1.116389948298916e+04 
1.116389948298916e+04 
1.125156268823250e+04 
    </DataArray>
    <DataArray type="Float64" Name="phiAnalytic_1" format="ascii">
9.601624415635026e+03 
9.603611838376242e+03 
9.603611838376242e+03 
9.609569318728052e+03 
9.609569318728052e+03 
9.619482504609225e+03 
9.619482504609225e+03 
9.633327514304357e+03 
9.633327514304357e+03 
9.651070993996624e+03 
9.651070993996624e+03 
9.672670198119509e+03 
9.672670198119509e+03 
9.698073092333980e+03 
9.698073092333980e+03 
9.727218478882995e+03 
9.727218478882995e+03 
9.760036144021386e+03 
9.760036144021386e+03 
9.796447027165979e+03 
9.796447027165979e+03 
9.836363411358439e+03 
9.836363411358439e+03 
9.879689134582088e+03 
9.879689134582088e+03 
9.926319821423527e+03 
9.926319821423527e+03 
9.976143134521120e+03 
9.976143134521120e+03 
1.002903904519451e+04 
1.002903904519451e+04 
1.008488012260322e+04 
1.008488012260322e+04 
1.014353184073787e+04 
1.014353184073787e+04 
1.020485290250427e+04 
1.020485290250427e+04 
1.026869558011980e+04 
1.026869558011980e+04 
1.033490607100203e+04 
1.033490607100203e+04 
1.040332486829216e+04 
1.040332486829216e+04 
1.047378714512076e+04 
1.047378714512076e+04 
1.054612315168998e+04 
1.054612315168998e+04 
1.062015862421570e+04 
1.062015862421570e+04 
1.069571520474448e+04 
1.069571520474448e+04 
1.077261087083375e+04 
1.077261087083375e+04 
1.085066037406037e+04 
1.085066037406037e+04 
1.092967568630088e+04 
1.092967568630088e+04 
1.100946645270845e+04 
1.100946645270845e+04 
1.108984045029523e+04 
1.108984045029523e+04 
1.117060405101528e+04 
1.117060405101528e+04 
1.125156268823250e+04 
    </DataArray>
    <DataArray type="Float64" Name="phi_2" format="ascii">
-1.754282036863915e+05 
-1.754276407573072e+05 
-1.754276407573072e+05 
-1.754259540912900e+05 
-1.754259540912900e+05 
-1.754231500361166e+05 
-1.754231500361166e+05 
-1.754192391185675e+05 
-1.754192391185675e+05 
-1.754142359660215e+05 
-1.754142359660215e+05 
-1.754081591984015e+05 
-1.754081591984015e+05 
-1.754010312921234e+05 
-1.754010312921234e+05 
-1.753928784181051e+05 
-1.753928784181051e+05 
-1.753837302562314e+05 
-1.753837302562314e+05 
-1.753736197889579e+05 
-1.753736197889579e+05 
-1.753625830769557e+05 
-1.753625830769557e+05 
-1.753506590198516e+05 
-1.753506590198516e+05 
-1.753378891051984e+05 
-1.753378891051984e+05 
-1.753243171488321e+05 
-1.753243171488321e+05 
-1.753099890297217e+05 
-1.753099890297217e+05 
-1.752949524223171e+05 
-1.752949524223171e+05 
-1.752792565292474e+05 
-1.752792565292474e+05 
-1.752629518170219e+05 
-1.752629518170219e+05 
-1.752460897571589e+05 
-1.752460897571589e+05 
-1.752287225749067e+05 
-1.752287225749067e+05 
-1.752109030074501e+05 
-1.752109030074501e+05 
-1.751926840732078e+05 
-1.751926840732078e+05 
-1.751741188535414e+05 
-1.751741188535414e+05 
-1.751552602879186e+05 
-1.751552602879186e+05 
-1.751361609832833e+05 
-1.751361609832833e+05 
-1.751168730381995e+05 
-1.751168730381995e+05 
-1.750974478818320e+05 
-1.750974478818320e+05 
-1.750779361286066e+05 
-1.750779361286066e+05 
-1.750583874454754e+05 
-1.750583874454754e+05 
-1.750388504424384e+05 
-1.750388504424384e+05 
-1.750193725451270e+05 
-1.750193725451270e+05 
-1.750000000000000e+05 
    </DataArray>
    <DataArray type="Float64" Name="phiAnalytic_2" format="ascii">
-1.753930780707487e+05 
-1.753925650375943e+05 
-1.753925650375943e+05 
-1.753910278099550e+05 
-1.753910278099550e+05 
-1.753884719900522e+05 
-1.753884719900522e+05 
-1.753849068709497e+05 
-1.753849068709497e+05 
-1.753803453712737e+05 
-1.753803453712737e+05 
-1.753748039451606e+05 
-1.753748039451606e+05 
-1.753683024687302e+05 
-1.753683024687302e+05 
-1.753608641046982e+05 
-1.753608641046982e+05 
-1.753525151470189e+05 
-1.753525151470189e+05 
-1.753432848476767e+05 
-1.753432848476767e+05 
-1.753332052279314e+05 
-1.753332052279314e+05 
-1.753223108764512e+05 
-1.753223108764512e+05 
-1.753106387368476e+05 
-1.753106387368476e+05 
-1.752982278871554e+05 
-1.752982278871554e+05 
-1.752851193137790e+05 
-1.752851193137790e+05 
-1.752713556823637e+05 
-1.752713556823637e+05 
-1.752569811079437e+05 
-1.752569811079437e+05 
-1.752420409265778e+05 
-1.752420409265778e+05 
-1.752265814705142e+05 
-1.752265814705142e+05 
-1.752106498487364e+05 
-1.752106498487364e+05 
-1.751942937345288e+05 
-1.751942937345288e+05 
-1.751775611614855e+05 
-1.751775611614855e+05 
-1.751605003291604e+05 
-1.751605003291604e+05 
-1.751431594193343e+05 
-1.751431594193343e+05 
-1.751255864236553e+05 
-1.751255864236553e+05 
-1.751078289832023e+05 
-1.751078289832023e+05 
-1.750899342403231e+05 
-1.750899342403231e+05 
-1.750719487029187e+05 
-1.750719487029187e+05 
-1.750539181211776e+05 
-1.750539181211776e+05 
-1.750358873766221e+05 
-1.750358873766221e+05 
-1.750179003831938e+05 
-1.750179003831938e+05 
-1.750000000000000e+05 
    </DataArray>
  </PointData>
  <CellData>
    <DataArray type="Float64" Name="Owner" format="ascii">
0.000000000000000e+00 
0.000000000000000e+00 
0.000000000000000e+00 
0.000000000000000e+00 
0.000000000000000e+00 
0.000000000000000e+00 
0.000000000000000e+00 
0.000000000000000e+00 
0.000000000000000e+00 
0.000000000000000e+00 
0.000000000000000e+00 
0.000000000000000e+00 
0.000000000000000e+00 
0.000000000000000e+00 
0.000000000000000e+00 
0.000000000000000e+00 
0.000000000000000e+00 
0.000000000000000e+00 
0.000000000000000e+00 
0.000000000000000e+00 
0.000000000000000e+00 
0.000000000000000e+00 
0.000000000000000e+00 
0.000000000000000e+00 
0.000000000000000e+00 
0.000000000000000e+00 
0.000000000000000e+00 
0.000000000000000e+00 
0.000000000000000e+00 
0.000000000000000e+00 
0.000000000000000e+00 
0.000000000000000e+00 
0.000000000000000e+00 
0.000000000000000e+00 
0.000000000000000e+00 
0.000000000000000e+00 
0.000000000000000e+00 
0.000000000000000e+00 
0.000000000000000e+00 
0.000000000000000e+00 
0.000000000000000e+00 
0.000000000000000e+00 
0.000000000000000e+00 
0.000000000000000e+00 
0.000000000000000e+00 
0.000000000000000e+00 
0.000000000000000e+00 
0.000000000000000e+00 
0.000000000000000e+00 
0.000000000000000e+00 
0.000000000000000e+00 
0.000000000000000e+00 
0.000000000000000e+00 
0.000000000000000e+00 
0.000000000000000e+00 
0.000000000000000e+00 
0.000000000000000e+00 
0.000000000000000e+00 
0.000000000000000e+00 
0.000000000000000e+00 
0.000000000000000e+00 
0.000000000000000e+00 
0.000000000000000e+00 
0.000000000000000e+00 
    </DataArray>
  </CellData>
</Piece>
</UnstructuredGrid>
</VTKFile>
