<?xml version="1.0" ?> 
<!-- 
# vtk DataFile Version 3.0
-->
<VTKFile type="UnstructuredGrid" version="0.1" compressor="vtkZLibDataCompressor" byte_order="LittleEndian">
<UnstructuredGrid>
<FieldData>
<DataArray type="Float32" Name="TIME" NumberOfTuples="1" format="ascii">744.04761905</DataArray>
</FieldData>
<Piece NumberOfPoints="64" NumberOfCells="32" >
  <Points>
    <DataArray type="Float64" NumberOfComponents="3" format="ascii">
0.000000000000000e+00 0.000000000000000e+00 0.000000000000000e+00 
3.125000000000000e-05 0.000000000000000e+00 0.000000000000000e+00 
3.125000000000000e-05 0.000000000000000e+00 0.000000000000000e+00 
6.250000000000000e-05 0.000000000000000e+00 0.000000000000000e+00 
6.250000000000000e-05 0.000000000000000e+00 0.000000000000000e+00 
9.375000000000000e-05 0.000000000000000e+00 0.000000000000000e+00 
9.375000000000000e-05 0.000000000000000e+00 0.000000000000000e+00 
1.250000000000000e-04 0.000000000000000e+00 0.000000000000000e+00 
1.250000000000000e-04 0.000000000000000e+00 0.000000000000000e+00 
1.562500000000000e-04 0.000000000000000e+00 0.000000000000000e+00 
1.562500000000000e-04 0.000000000000000e+00 0.000000000000000e+00 
1.875000000000000e-04 0.000000000000000e+00 0.000000000000000e+00 
1.875000000000000e-04 0.000000000000000e+00 0.000000000000000e+00 
2.187500000000000e-04 0.000000000000000e+00 0.000000000000000e+00 
2.187500000000000e-04 0.000000000000000e+00 0.000000000000000e+00 
2.500000000000000e-04 0.000000000000000e+00 0.000000000000000e+00 
2.500000000000000e-04 0.000000000000000e+00 0.000000000000000e+00 
2.812500000000000e-04 0.000000000000000e+00 0.000000000000000e+00 
2.812500000000000e-04 0.000000000000000e+00 0.000000000000000e+00 
3.125000000000000e-04 0.000000000000000e+00 0.000000000000000e+00 
3.125000000000000e-04 0.000000000000000e+00 0.000000000000000e+00 
3.437500000000000e-04 0.000000000000000e+00 0.000000000000000e+00 
3.437500000000000e-04 0.000000000000000e+00 0.000000000000000e+00 
3.750000000000000e-04 0.000000000000000e+00 0.000000000000000e+00 
3.750000000000000e-04 0.000000000000000e+00 0.000000000000000e+00 
4.062500000000000e-04 0.000000000000000e+00 0.000000000000000e+00 
4.062500000000000e-04 0.000000000000000e+00 0.000000000000000e+00 
4.375000000000000e-04 0.000000000000000e+00 0.000000000000000e+00 
4.375000000000000e-04 0.000000000000000e+00 0.000000000000000e+00 
4.687500000000000e-04 0.000000000000000e+00 0.000000000000000e+00 
4.687500000000000e-04 0.000000000000000e+00 0.000000000000000e+00 
5.000000000000000e-04 0.000000000000000e+00 0.000000000000000e+00 
5.000000000000000e-04 0.000000000000000e+00 0.000000000000000e+00 
5.312500000000000e-04 0.000000000000000e+00 0.000000000000000e+00 
5.312500000000000e-04 0.000000000000000e+00 0.000000000000000e+00 
5.625000000000001e-04 0.000000000000000e+00 0.000000000000000e+00 
5.625000000000001e-04 0.000000000000000e+00 0.000000000000000e+00 
5.937500000000000e-04 0.000000000000000e+00 0.000000000000000e+00 
5.937500000000000e-04 0.000000000000000e+00 0.000000000000000e+00 
6.250000000000000e-04 0.000000000000000e+00 0.000000000000000e+00 
6.250000000000000e-04 0.000000000000000e+00 0.000000000000000e+00 
6.562500000000000e-04 0.000000000000000e+00 0.000000000000000e+00 
6.562500000000000e-04 0.000000000000000e+00 0.000000000000000e+00 
6.875000000000000e-04 0.000000000000000e+00 0.000000000000000e+00 
6.875000000000000e-04 0.000000000000000e+00 0.000000000000000e+00 
7.187500000000000e-04 0.000000000000000e+00 0.000000000000000e+00 
7.187500000000000e-04 0.000000000000000e+00 0.000000000000000e+00 
7.500000000000000e-04 0.000000000000000e+00 0.000000000000000e+00 
7.500000000000000e-04 0.000000000000000e+00 0.000000000000000e+00 
7.812500000000000e-04 0.000000000000000e+00 0.000000000000000e+00 
7.812500000000000e-04 0.000000000000000e+00 0.000000000000000e+00 
8.125000000000001e-04 0.000000000000000e+00 0.000000000000000e+00 
8.125000000000001e-04 0.000000000000000e+00 0.000000000000000e+00 
8.437500000000000e-04 0.000000000000000e+00 0.000000000000000e+00 
8.437500000000000e-04 0.000000000000000e+00 0.000000000000000e+00 
8.750000000000000e-04 0.000000000000000e+00 0.000000000000000e+00 
8.750000000000000e-04 0.000000000000000e+00 0.000000000000000e+00 
9.062500000000000e-04 0.000000000000000e+00 0.000000000000000e+00 
9.062500000000000e-04 0.000000000000000e+00 0.000000000000000e+00 
9.375000000000000e-04 0.000000000000000e+00 0.000000000000000e+00 
9.375000000000000e-04 0.000000000000000e+00 0.000000000000000e+00 
9.687500000000000e-04 0.000000000000000e+00 0.000000000000000e+00 
9.687500000000000e-04 0.000000000000000e+00 0.000000000000000e+00 
1.000000000000000e-03 0.000000000000000e+00 0.000000000000000e+00 
    </DataArray>
  </Points>

  <Cells>
    <DataArray type="Int32" Name="connectivity" format="ascii">
0 1 2 3 4 5 6 7 8 9 10 11 12 13 14 15 16 17 18 19 20 21 22 23 24 25 26 27 28 29 30 31 32 33 34 35 36 37 38 39 40 41 42 43 44 45 46 47 48 49 50 51 52 53 54 55 56 57 58 59 60 61 62 63     </DataArray>
    <DataArray type="Int32" Name="offsets" format="ascii">
2 4 6 8 10 12 14 16 18 20 22 24 26 28 30 32 34 36 38 40 42 44 46 48 50 52 54 56 58 60 62 64     </DataArray>
    <DataArray type="UInt8" Name="types" format="ascii">
3 3 3 3 3 3 3 3 3 3 3 3 3 3 3 3 3 3 3 3 3 3 3 3 3 3 3 3 3 3 3 3     </DataArray>
  </Cells>

  <PointData>
    <DataArray type="Float64" Name="phi_1" format="ascii">
8.017598709269646e+03 
8.021492001233429e+03 
8.021492001233429e+03 
8.033162537767692e+03 
8.033162537767692e+03 
8.052582322440953e+03 
8.052582322440953e+03 
8.079704766636235e+03 
8.079704766636235e+03 
8.114464797599046e+03 
8.114464797599046e+03 
8.156779009495586e+03 
8.156779009495586e+03 
8.206545857259618e+03 
8.206545857259618e+03 
8.263645892945195e+03 
8.263645892945195e+03 
8.327942044216737e+03 
8.327942044216737e+03 
8.399279934535369e+03 
8.399279934535369e+03 
8.477488244506349e+03 
8.477488244506349e+03 
8.562379113761082e+03 
8.562379113761082e+03 
8.653748582651315e+03 
8.653748582651315e+03 
8.751377072925472e+03 
8.751377072925472e+03 
8.855029906455004e+03 
8.855029906455004e+03 
8.964457860968685e+03 
8.964457860968685e+03 
9.079397761640754e+03 
9.079397761640754e+03 
9.199573107278609e+03 
9.199573107278609e+03 
9.324694729708757e+03 
9.324694729708757e+03 
9.454461485001531e+03 
9.454461485001531e+03 
9.588560974495193e+03 
9.588560974495193e+03 
9.726670295653508e+03 
9.726670295653508e+03 
9.868456814514882e+03 
9.868456814514882e+03 
1.001357898214599e+04 
1.001357898214599e+04 
1.016168710183237e+04 
1.016168710183237e+04 
1.031242438823522e+04 
1.031242438823522e+04 
1.046542702583801e+04 
1.046542702583801e+04 
1.062032807661910e+04 
1.062032807661910e+04 
1.077674699209083e+04 
1.077674699209083e+04 
1.093433331379819e+04 
1.093433331379819e+04 
1.109260670484729e+04 
1.109260670484729e+04 
1.125156268823250e+04 
    </DataArray>
    <DataArray type="Float64" Name="phiAnalytic_1" format="ascii">
8.194095979508009e+03 
8.197778789059228e+03 
8.197778789059228e+03 
8.208818346432930e+03 
8.208818346432930e+03 
8.227188059140810e+03 
8.227188059140810e+03 
8.252843677489813e+03 
8.252843677489813e+03 
8.285723401084966e+03 
8.285723401084966e+03 
8.325748027576910e+03 
8.325748027576910e+03 
8.372821143298801e+03 
8.372821143298801e+03 
8.426829355336893e+03 
8.426829355336893e+03 
8.487642564480062e+03 
8.487642564480062e+03 
8.555114278395544e+03 
8.555114278395544e+03 
8.629081964281702e+03 
8.629081964281702e+03 
8.709367440153927e+03 
8.709367440153927e+03 
8.795777303826804e+03 
8.795777303826804e+03 
8.888103398565090e+03 
8.888103398565090e+03 
8.986123314287517e+03 
8.986123314287517e+03 
9.089600923121769e+03 
9.089600923121769e+03 
9.198286948025785e+03 
9.198286948025785e+03 
9.311919563110594e+03 
9.311919563110594e+03 
9.430225024222898e+03 
9.430225024222898e+03 
9.552918328272192e+03 
9.552918328272192e+03 
9.679703899717144e+03 
9.679703899717144e+03 
9.810276302559945e+03 
9.810276302559945e+03 
9.944320976134826e+03 
9.944320976134826e+03 
1.008151499291898e+04 
1.008151499291898e+04 
1.022152783654010e+04 
1.022152783654010e+04 
1.036402219810515e+04 
1.036402219810515e+04 
1.050865478893021e+04 
1.050865478893021e+04 
1.065507716771070e+04 
1.065507716771070e+04 
1.080293658013587e+04 
1.080293658013587e+04 
1.095187680892077e+04 
1.095187680892077e+04 
1.110153903220318e+04 
1.110153903220318e+04 
1.125156268823250e+04 
    </DataArray>
    <DataArray type="Float64" Name="phi_2" format="ascii">
-1.758399926366781e+05 
-1.758387890362823e+05 
-1.758387890362823e+05 
-1.758351846224706e+05 
-1.758351846224706e+05 
-1.758291984749385e+05 
-1.758291984749385e+05 
-1.758208621206428e+05 
-1.758208621206428e+05 
-1.758102191327291e+05 
-1.758102191327291e+05 
-1.757973245841259e+05 
-1.757973245841259e+05 
-1.757822443700710e+05 
-1.757822443700710e+05 
-1.757650544167967e+05 
-1.757650544167967e+05 
-1.757458397958205e+05 
-1.757458397958205e+05 
-1.757246937647243e+05 
-1.757246937647243e+05 
-1.757017167559329e+05 
-1.757017167559329e+05 
-1.756770153348672e+05 
-1.756770153348672e+05 
-1.756507011480103e+05 
-1.756507011480103e+05 
-1.756228898799945e+05 
-1.756228898799945e+05 
-1.755937002369080e+05 
-1.755937002369080e+05 
-1.755632529707695e+05 
-1.755632529707695e+05 
-1.755316699576507e+05 
-1.755316699576507e+05 
-1.754990733393694e+05 
-1.754990733393694e+05 
-1.754655847361399e+05 
-1.754655847361399e+05 
-1.754313245351418e+05 
-1.754313245351418e+05 
-1.753964112577296e+05 
-1.753964112577296e+05 
-1.753609610060046e+05 
-1.753609610060046e+05 
-1.753250869877329e+05 
-1.753250869877329e+05 
-1.752888991171793e+05 
-1.752888991171793e+05 
-1.752525036881466e+05 
-1.752525036881466e+05 
-1.752160031150827e+05 
-1.752160031150827e+05 
-1.751794957357898e+05 
-1.751794957357898e+05 
-1.751430756751710e+05 
-1.751430756751710e+05 
-1.751068327459259e+05 
-1.751068327459259e+05 
-1.750708524481681e+05 
-1.750708524481681e+05 
-1.750352158129634e+05 
-1.750352158129634e+05 
-1.750000000000000e+05 
    </DataArray>
    <DataArray type="Float64" Name="phiAnalytic_2" format="ascii">
-1.757860165125259e+05 
-1.757849026657036e+05 
-1.757849026657036e+05 
-1.757815668039673e+05 
-1.757815668039673e+05 
-1.757760258942648e+05 
-1.757760258942648e+05 
-1.757683079858072e+05 
-1.757683079858072e+05 
-1.757584518726577e+05 
-1.757584518726577e+05 
-1.757465066333645e+05 
-1.757465066333645e+05 
-1.757325310590210e+05 
-1.757325310590210e+05 
-1.757165929835492e+05 
-1.757165929835492e+05 
-1.756987685318480e+05 
-1.756987685318480e+05 
-1.756791413026963e+05 
-1.756791413026963e+05 
-1.756578015039233e+05 
-1.756578015039233e+05 
-1.756348450573812e+05 
-1.756348450573812e+05 
-1.756103726907267e+05 
-1.756103726907267e+05 
-1.755844890320016e+05 
-1.755844890320016e+05 
-1.755573017215960e+05 
-1.755573017215960e+05 
-1.755289205544674e+05 
-1.755289205544674e+05 
-1.754994566635811e+05 
-1.754994566635811e+05 
-1.754690217535231e+05 
-1.754690217535231e+05 
-1.754377273912057e+05 
-1.754377273912057e+05 
-1.754056843586116e+05 
-1.754056843586116e+05 
-1.753730020706678e+05 
-1.753730020706678e+05 
-1.753397880596521e+05 
-1.753397880596521e+05 
-1.753061475260425e+05 
-1.753061475260425e+05 
-1.752721829544433e+05 
-1.752721829544433e+05 
-1.752379937921697e+05 
-1.752379937921697e+05 
-1.752036761872362e+05 
-1.752036761872362e+05 
-1.751693227818654e+05 
-1.751693227818654e+05 
-1.751350225571977e+05 
-1.751350225571977e+05 
-1.751008607246111e+05 
-1.751008607246111e+05 
-1.750669186589410e+05 
-1.750669186589410e+05 
-1.750332738688872e+05 
-1.750332738688872e+05 
-1.750000000000000e+05 
    </DataArray>
  </PointData>
  <CellData>
    <DataArray type="Float64" Name="Owner" format="ascii">
0.000000000000000e+00 
0.000000000000000e+00 
0.000000000000000e+00 
0.000000000000000e+00 
0.000000000000000e+00 
0.000000000000000e+00 
0.000000000000000e+00 
0.000000000000000e+00 
0.000000000000000e+00 
0.000000000000000e+00 
0.000000000000000e+00 
0.000000000000000e+00 
0.000000000000000e+00 
0.000000000000000e+00 
0.000000000000000e+00 
0.000000000000000e+00 
0.000000000000000e+00 
0.000000000000000e+00 
0.000000000000000e+00 
0.000000000000000e+00 
0.000000000000000e+00 
0.000000000000000e+00 
0.000000000000000e+00 
0.000000000000000e+00 
0.000000000000000e+00 
0.000000000000000e+00 
0.000000000000000e+00 
0.000000000000000e+00 
0.000000000000000e+00 
0.000000000000000e+00 
0.000000000000000e+00 
0.000000000000000e+00 
0.000000000000000e+00 
0.000000000000000e+00 
0.000000000000000e+00 
0.000000000000000e+00 
0.000000000000000e+00 
0.000000000000000e+00 
0.000000000000000e+00 
0.000000000000000e+00 
0.000000000000000e+00 
0.000000000000000e+00 
0.000000000000000e+00 
0.000000000000000e+00 
0.000000000000000e+00 
0.000000000000000e+00 
0.000000000000000e+00 
0.000000000000000e+00 
0.000000000000000e+00 
0.000000000000000e+00 
0.000000000000000e+00 
0.000000000000000e+00 
0.000000000000000e+00 
0.000000000000000e+00 
0.000000000000000e+00 
0.000000000000000e+00 
0.000000000000000e+00 
0.000000000000000e+00 
0.000000000000000e+00 
0.000000000000000e+00 
0.000000000000000e+00 
0.000000000000000e+00 
0.000000000000000e+00 
0.000000000000000e+00 
    </DataArray>
  </CellData>
</Piece>
</UnstructuredGrid>
</VTKFile>
