<?xml version="1.0" ?> 
<!-- 
# vtk DataFile Version 3.0
-->
<VTKFile type="UnstructuredGrid" version="0.1" compressor="vtkZLibDataCompressor" byte_order="LittleEndian">
<UnstructuredGrid>
<FieldData>
<DataArray type="Float32" Name="TIME" NumberOfTuples="1" format="ascii">1190.47619048</DataArray>
</FieldData>
<Piece NumberOfPoints="64" NumberOfCells="32" >
  <Points>
    <DataArray type="Float64" NumberOfComponents="3" format="ascii">
0.000000000000000e+00 0.000000000000000e+00 0.000000000000000e+00 
3.125000000000000e-05 0.000000000000000e+00 0.000000000000000e+00 
3.125000000000000e-05 0.000000000000000e+00 0.000000000000000e+00 
6.250000000000000e-05 0.000000000000000e+00 0.000000000000000e+00 
6.250000000000000e-05 0.000000000000000e+00 0.000000000000000e+00 
9.375000000000000e-05 0.000000000000000e+00 0.000000000000000e+00 
9.375000000000000e-05 0.000000000000000e+00 0.000000000000000e+00 
1.250000000000000e-04 0.000000000000000e+00 0.000000000000000e+00 
1.250000000000000e-04 0.000000000000000e+00 0.000000000000000e+00 
1.562500000000000e-04 0.000000000000000e+00 0.000000000000000e+00 
1.562500000000000e-04 0.000000000000000e+00 0.000000000000000e+00 
1.875000000000000e-04 0.000000000000000e+00 0.000000000000000e+00 
1.875000000000000e-04 0.000000000000000e+00 0.000000000000000e+00 
2.187500000000000e-04 0.000000000000000e+00 0.000000000000000e+00 
2.187500000000000e-04 0.000000000000000e+00 0.000000000000000e+00 
2.500000000000000e-04 0.000000000000000e+00 0.000000000000000e+00 
2.500000000000000e-04 0.000000000000000e+00 0.000000000000000e+00 
2.812500000000000e-04 0.000000000000000e+00 0.000000000000000e+00 
2.812500000000000e-04 0.000000000000000e+00 0.000000000000000e+00 
3.125000000000000e-04 0.000000000000000e+00 0.000000000000000e+00 
3.125000000000000e-04 0.000000000000000e+00 0.000000000000000e+00 
3.437500000000000e-04 0.000000000000000e+00 0.000000000000000e+00 
3.437500000000000e-04 0.000000000000000e+00 0.000000000000000e+00 
3.750000000000000e-04 0.000000000000000e+00 0.000000000000000e+00 
3.750000000000000e-04 0.000000000000000e+00 0.000000000000000e+00 
4.062500000000000e-04 0.000000000000000e+00 0.000000000000000e+00 
4.062500000000000e-04 0.000000000000000e+00 0.000000000000000e+00 
4.375000000000000e-04 0.000000000000000e+00 0.000000000000000e+00 
4.375000000000000e-04 0.000000000000000e+00 0.000000000000000e+00 
4.687500000000000e-04 0.000000000000000e+00 0.000000000000000e+00 
4.687500000000000e-04 0.000000000000000e+00 0.000000000000000e+00 
5.000000000000000e-04 0.000000000000000e+00 0.000000000000000e+00 
5.000000000000000e-04 0.000000000000000e+00 0.000000000000000e+00 
5.312500000000000e-04 0.000000000000000e+00 0.000000000000000e+00 
5.312500000000000e-04 0.000000000000000e+00 0.000000000000000e+00 
5.625000000000001e-04 0.000000000000000e+00 0.000000000000000e+00 
5.625000000000001e-04 0.000000000000000e+00 0.000000000000000e+00 
5.937500000000000e-04 0.000000000000000e+00 0.000000000000000e+00 
5.937500000000000e-04 0.000000000000000e+00 0.000000000000000e+00 
6.250000000000000e-04 0.000000000000000e+00 0.000000000000000e+00 
6.250000000000000e-04 0.000000000000000e+00 0.000000000000000e+00 
6.562500000000000e-04 0.000000000000000e+00 0.000000000000000e+00 
6.562500000000000e-04 0.000000000000000e+00 0.000000000000000e+00 
6.875000000000000e-04 0.000000000000000e+00 0.000000000000000e+00 
6.875000000000000e-04 0.000000000000000e+00 0.000000000000000e+00 
7.187500000000000e-04 0.000000000000000e+00 0.000000000000000e+00 
7.187500000000000e-04 0.000000000000000e+00 0.000000000000000e+00 
7.500000000000000e-04 0.000000000000000e+00 0.000000000000000e+00 
7.500000000000000e-04 0.000000000000000e+00 0.000000000000000e+00 
7.812500000000000e-04 0.000000000000000e+00 0.000000000000000e+00 
7.812500000000000e-04 0.000000000000000e+00 0.000000000000000e+00 
8.125000000000001e-04 0.000000000000000e+00 0.000000000000000e+00 
8.125000000000001e-04 0.000000000000000e+00 0.000000000000000e+00 
8.437500000000000e-04 0.000000000000000e+00 0.000000000000000e+00 
8.437500000000000e-04 0.000000000000000e+00 0.000000000000000e+00 
8.750000000000000e-04 0.000000000000000e+00 0.000000000000000e+00 
8.750000000000000e-04 0.000000000000000e+00 0.000000000000000e+00 
9.062500000000000e-04 0.000000000000000e+00 0.000000000000000e+00 
9.062500000000000e-04 0.000000000000000e+00 0.000000000000000e+00 
9.375000000000000e-04 0.000000000000000e+00 0.000000000000000e+00 
9.375000000000000e-04 0.000000000000000e+00 0.000000000000000e+00 
9.687500000000000e-04 0.000000000000000e+00 0.000000000000000e+00 
9.687500000000000e-04 0.000000000000000e+00 0.000000000000000e+00 
1.000000000000000e-03 0.000000000000000e+00 0.000000000000000e+00 
    </DataArray>
  </Points>

  <Cells>
    <DataArray type="Int32" Name="connectivity" format="ascii">
0 1 2 3 4 5 6 7 8 9 10 11 12 13 14 15 16 17 18 19 20 21 22 23 24 25 26 27 28 29 30 31 32 33 34 35 36 37 38 39 40 41 42 43 44 45 46 47 48 49 50 51 52 53 54 55 56 57 58 59 60 61 62 63     </DataArray>
    <DataArray type="Int32" Name="offsets" format="ascii">
2 4 6 8 10 12 14 16 18 20 22 24 26 28 30 32 34 36 38 40 42 44 46 48 50 52 54 56 58 60 62 64     </DataArray>
    <DataArray type="UInt8" Name="types" format="ascii">
3 3 3 3 3 3 3 3 3 3 3 3 3 3 3 3 3 3 3 3 3 3 3 3 3 3 3 3 3 3 3 3     </DataArray>
  </Cells>

  <PointData>
    <DataArray type="Float64" Name="phi_1" format="ascii">
9.925413592578207e+03 
9.927010864190896e+03 
9.927010864190896e+03 
9.931798832594644e+03 
9.931798832594644e+03 
9.939765967733478e+03 
9.939765967733478e+03 
9.950893083643023e+03 
9.950893083643023e+03 
9.965153384568714e+03 
9.965153384568714e+03 
9.982512529376960e+03 
9.982512529376960e+03 
1.000292871410919e+04 
1.000292871410919e+04 
1.002635277248079e+04 
1.002635277248079e+04 
1.005272829408602e+04 
1.005272829408602e+04 
1.008199176003171e+04 
1.008199176003171e+04 
1.011407269567361e+04 
1.011407269567361e+04 
1.014889384009533e+04 
1.014889384009533e+04 
1.018637133192243e+04 
1.018637133192243e+04 
1.022641491103417e+04 
1.022641491103417e+04 
1.026892813568637e+04 
1.026892813568637e+04 
1.031380861453124e+04 
1.031380861453124e+04 
1.036094825297707e+04 
1.036094825297707e+04 
1.041023351329973e+04 
1.041023351329973e+04 
1.046154568787961e+04 
1.046154568787961e+04 
1.051476118492637e+04 
1.051476118492637e+04 
1.056975182593112e+04 
1.056975182593112e+04 
1.062638515442916e+04 
1.062638515442916e+04 
1.068452475419612e+04 
1.068452475419612e+04 
1.074403058037903e+04 
1.074403058037903e+04 
1.080475928679204e+04 
1.080475928679204e+04 
1.086656460836414e+04 
1.086656460836414e+04 
1.092929757410871e+04 
1.092929757410871e+04 
1.099280738737722e+04 
1.099280738737722e+04 
1.105693983751755e+04 
1.105693983751755e+04 
1.112154497601163e+04 
1.112154497601163e+04 
1.118645013700039e+04 
1.118645013700039e+04 
1.125156268823250e+04 
    </DataArray>
    <DataArray type="Float64" Name="phiAnalytic_1" format="ascii">
1.003951316355870e+04 
1.004097313028228e+04 
1.004097313028228e+04 
1.004534951326551e+04 
1.004534951326551e+04 
1.005263176941913e+04 
1.005263176941913e+04 
1.006280235515132e+04 
1.006280235515132e+04 
1.007583676863172e+04 
1.007583676863172e+04 
1.009170360881847e+04 
1.009170360881847e+04 
1.011036465110598e+04 
1.011036465110598e+04 
1.013177493941139e+04 
1.013177493941139e+04 
1.015588289447757e+04 
1.015588289447757e+04 
1.018263043813207e+04 
1.018263043813207e+04 
1.021195313320243e+04 
1.021195313320243e+04 
1.024378033875093e+04 
1.024378033875093e+04 
1.027803538025469e+04 
1.027803538025469e+04 
1.031463573432129e+04 
1.031463573432129e+04 
1.035349322749478e+04 
1.035349322749478e+04 
1.039451424867316e+04 
1.039451424867316e+04 
1.043759997462572e+04 
1.043759997462572e+04 
1.048264660806678e+04 
1.048264660806678e+04 
1.052954562771239e+04 
1.052954562771239e+04 
1.057818404971759e+04 
1.057818404971759e+04 
1.062844469986438e+04 
1.062844469986438e+04 
1.068020649584460e+04 
1.068020649584460e+04 
1.073334473895787e+04 
1.073334473895787e+04 
1.078773141452165e+04 
1.078773141452165e+04 
1.084323550026982e+04 
1.084323550026982e+04 
1.089972328199687e+04 
1.089972328199687e+04 
1.095705867568711e+04 
1.095705867568711e+04 
1.101510355535304e+04 
1.101510355535304e+04 
1.107371808579300e+04 
1.107371808579300e+04 
1.113276105946647e+04 
1.113276105946647e+04 
1.119209023667547e+04 
1.119209023667547e+04 
1.125156268823250e+04 
    </DataArray>
    <DataArray type="Float64" Name="phi_2" format="ascii">
-1.753108650541173e+05 
-1.753104661547565e+05 
-1.753104661547565e+05 
-1.753092708019378e+05 
-1.753092708019378e+05 
-1.753072830232819e+05 
-1.753072830232819e+05 
-1.753045095043556e+05 
-1.753045095043556e+05 
-1.753009595483261e+05 
-1.753009595483261e+05 
-1.752966450201773e+05 
-1.752966450201773e+05 
-1.752915802761733e+05 
-1.752915802761733e+05 
-1.752857820794223e+05 
-1.752857820794223e+05 
-1.752792695025464e+05 
-1.752792695025464e+05 
-1.752720638185968e+05 
-1.752720638185968e+05 
-1.752641883814601e+05 
-1.752641883814601e+05 
-1.752556684970899e+05 
-1.752556684970899e+05 
-1.752465312869557e+05 
-1.752465312869557e+05 
-1.752368055451382e+05 
-1.752368055451382e+05 
-1.752265215905107e+05 
-1.752265215905107e+05 
-1.752157111154332e+05 
-1.752157111154332e+05 
-1.752044070323533e+05 
-1.752044070323533e+05 
-1.751926433196536e+05 
-1.751926433196536e+05 
-1.751804548680145e+05 
-1.751804548680145e+05 
-1.751678773284768e+05 
-1.751678773284768e+05 
-1.751549469632908e+05 
-1.751549469632908e+05 
-1.751417005005329e+05 
-1.751417005005329e+05 
-1.751281749933564e+05 
-1.751281749933564e+05 
-1.751144076846327e+05 
-1.751144076846327e+05 
-1.751004358776097e+05 
-1.751004358776097e+05 
-1.750862968131299e+05 
-1.750862968131299e+05 
-1.750720275537291e+05 
-1.750720275537291e+05 
-1.750576648752302e+05 
-1.750576648752302e+05 
-1.750432451648387e+05 
-1.750432451648387e+05 
-1.750288043302808e+05 
-1.750288043302808e+05 
-1.750143777034344e+05 
-1.750143777034344e+05 
-1.750000000000000e+05 
    </DataArray>
    <DataArray type="Float64" Name="phiAnalytic_2" format="ascii">
-1.752825318379367e+05 
-1.752821713891554e+05 
-1.752821713891554e+05 
-1.752810912250964e+05 
-1.752810912250964e+05 
-1.752792948858342e+05 
-1.752792948858342e+05 
-1.752767882489738e+05 
-1.752767882489738e+05 
-1.752735794961474e+05 
-1.752735794961474e+05 
-1.752696790666562e+05 
-1.752696790666562e+05 
-1.752650995987908e+05 
-1.752650995987908e+05 
-1.752598558594972e+05 
-1.752598558594972e+05 
-1.752539646631750e+05 
-1.752539646631750e+05 
-1.752474447805043e+05 
-1.752474447805043e+05 
-1.752403168382804e+05 
-1.752403168382804e+05 
-1.752326032113126e+05 
-1.752326032113126e+05 
-1.752243279074921e+05 
-1.752243279074921e+05 
-1.752155164471666e+05 
-1.752155164471666e+05 
-1.752061957379799e+05 
-1.752061957379799e+05 
-1.751963939463228e+05 
-1.751963939463228e+05 
-1.751861403665306e+05 
-1.751861403665306e+05 
-1.751754652889211e+05 
-1.751754652889211e+05 
-1.751643998677203e+05 
-1.751643998677203e+05 
-1.751529759898618e+05 
-1.751529759898618e+05 
-1.751412261455742e+05 
-1.751412261455742e+05 
-1.751291833015931e+05 
-1.751291833015931e+05 
-1.751168807777472e+05 
-1.751168807777472e+05 
-1.751043521275806e+05 
-1.751043521275806e+05 
-1.750916310235835e+05 
-1.750916310235835e+05 
-1.750787511475102e+05 
-1.750787511475102e+05 
-1.750657460861738e+05 
-1.750657460861738e+05 
-1.750526492330218e+05 
-1.750526492330218e+05 
-1.750394936957111e+05 
-1.750394936957111e+05 
-1.750263122098225e+05 
-1.750263122098225e+05 
-1.750131370587836e+05 
-1.750131370587836e+05 
-1.750000000000000e+05 
    </DataArray>
  </PointData>
  <CellData>
    <DataArray type="Float64" Name="Owner" format="ascii">
0.000000000000000e+00 
0.000000000000000e+00 
0.000000000000000e+00 
0.000000000000000e+00 
0.000000000000000e+00 
0.000000000000000e+00 
0.000000000000000e+00 
0.000000000000000e+00 
0.000000000000000e+00 
0.000000000000000e+00 
0.000000000000000e+00 
0.000000000000000e+00 
0.000000000000000e+00 
0.000000000000000e+00 
0.000000000000000e+00 
0.000000000000000e+00 
0.000000000000000e+00 
0.000000000000000e+00 
0.000000000000000e+00 
0.000000000000000e+00 
0.000000000000000e+00 
0.000000000000000e+00 
0.000000000000000e+00 
0.000000000000000e+00 
0.000000000000000e+00 
0.000000000000000e+00 
0.000000000000000e+00 
0.000000000000000e+00 
0.000000000000000e+00 
0.000000000000000e+00 
0.000000000000000e+00 
0.000000000000000e+00 
0.000000000000000e+00 
0.000000000000000e+00 
0.000000000000000e+00 
0.000000000000000e+00 
0.000000000000000e+00 
0.000000000000000e+00 
0.000000000000000e+00 
0.000000000000000e+00 
0.000000000000000e+00 
0.000000000000000e+00 
0.000000000000000e+00 
0.000000000000000e+00 
0.000000000000000e+00 
0.000000000000000e+00 
0.000000000000000e+00 
0.000000000000000e+00 
0.000000000000000e+00 
0.000000000000000e+00 
0.000000000000000e+00 
0.000000000000000e+00 
0.000000000000000e+00 
0.000000000000000e+00 
0.000000000000000e+00 
0.000000000000000e+00 
0.000000000000000e+00 
0.000000000000000e+00 
0.000000000000000e+00 
0.000000000000000e+00 
0.000000000000000e+00 
0.000000000000000e+00 
0.000000000000000e+00 
0.000000000000000e+00 
    </DataArray>
  </CellData>
</Piece>
</UnstructuredGrid>
</VTKFile>
