<?xml version="1.0" ?> 
<!-- 
# vtk DataFile Version 3.0
-->
<VTKFile type="UnstructuredGrid" version="0.1" compressor="vtkZLibDataCompressor" byte_order="LittleEndian">
<UnstructuredGrid>
<FieldData>
<DataArray type="Float32" Name="TIME" NumberOfTuples="1" format="ascii">632.4404761925</DataArray>
</FieldData>
<Piece NumberOfPoints="64" NumberOfCells="32" >
  <Points>
    <DataArray type="Float64" NumberOfComponents="3" format="ascii">
0.000000000000000e+00 0.000000000000000e+00 0.000000000000000e+00 
3.125000000000000e-05 0.000000000000000e+00 0.000000000000000e+00 
3.125000000000000e-05 0.000000000000000e+00 0.000000000000000e+00 
6.250000000000000e-05 0.000000000000000e+00 0.000000000000000e+00 
6.250000000000000e-05 0.000000000000000e+00 0.000000000000000e+00 
9.375000000000000e-05 0.000000000000000e+00 0.000000000000000e+00 
9.375000000000000e-05 0.000000000000000e+00 0.000000000000000e+00 
1.250000000000000e-04 0.000000000000000e+00 0.000000000000000e+00 
1.250000000000000e-04 0.000000000000000e+00 0.000000000000000e+00 
1.562500000000000e-04 0.000000000000000e+00 0.000000000000000e+00 
1.562500000000000e-04 0.000000000000000e+00 0.000000000000000e+00 
1.875000000000000e-04 0.000000000000000e+00 0.000000000000000e+00 
1.875000000000000e-04 0.000000000000000e+00 0.000000000000000e+00 
2.187500000000000e-04 0.000000000000000e+00 0.000000000000000e+00 
2.187500000000000e-04 0.000000000000000e+00 0.000000000000000e+00 
2.500000000000000e-04 0.000000000000000e+00 0.000000000000000e+00 
2.500000000000000e-04 0.000000000000000e+00 0.000000000000000e+00 
2.812500000000000e-04 0.000000000000000e+00 0.000000000000000e+00 
2.812500000000000e-04 0.000000000000000e+00 0.000000000000000e+00 
3.125000000000000e-04 0.000000000000000e+00 0.000000000000000e+00 
3.125000000000000e-04 0.000000000000000e+00 0.000000000000000e+00 
3.437500000000000e-04 0.000000000000000e+00 0.000000000000000e+00 
3.437500000000000e-04 0.000000000000000e+00 0.000000000000000e+00 
3.750000000000000e-04 0.000000000000000e+00 0.000000000000000e+00 
3.750000000000000e-04 0.000000000000000e+00 0.000000000000000e+00 
4.062500000000000e-04 0.000000000000000e+00 0.000000000000000e+00 
4.062500000000000e-04 0.000000000000000e+00 0.000000000000000e+00 
4.375000000000000e-04 0.000000000000000e+00 0.000000000000000e+00 
4.375000000000000e-04 0.000000000000000e+00 0.000000000000000e+00 
4.687500000000000e-04 0.000000000000000e+00 0.000000000000000e+00 
4.687500000000000e-04 0.000000000000000e+00 0.000000000000000e+00 
5.000000000000000e-04 0.000000000000000e+00 0.000000000000000e+00 
5.000000000000000e-04 0.000000000000000e+00 0.000000000000000e+00 
5.312500000000000e-04 0.000000000000000e+00 0.000000000000000e+00 
5.312500000000000e-04 0.000000000000000e+00 0.000000000000000e+00 
5.625000000000001e-04 0.000000000000000e+00 0.000000000000000e+00 
5.625000000000001e-04 0.000000000000000e+00 0.000000000000000e+00 
5.937500000000000e-04 0.000000000000000e+00 0.000000000000000e+00 
5.937500000000000e-04 0.000000000000000e+00 0.000000000000000e+00 
6.250000000000000e-04 0.000000000000000e+00 0.000000000000000e+00 
6.250000000000000e-04 0.000000000000000e+00 0.000000000000000e+00 
6.562500000000000e-04 0.000000000000000e+00 0.000000000000000e+00 
6.562500000000000e-04 0.000000000000000e+00 0.000000000000000e+00 
6.875000000000000e-04 0.000000000000000e+00 0.000000000000000e+00 
6.875000000000000e-04 0.000000000000000e+00 0.000000000000000e+00 
7.187500000000000e-04 0.000000000000000e+00 0.000000000000000e+00 
7.187500000000000e-04 0.000000000000000e+00 0.000000000000000e+00 
7.500000000000000e-04 0.000000000000000e+00 0.000000000000000e+00 
7.500000000000000e-04 0.000000000000000e+00 0.000000000000000e+00 
7.812500000000000e-04 0.000000000000000e+00 0.000000000000000e+00 
7.812500000000000e-04 0.000000000000000e+00 0.000000000000000e+00 
8.125000000000001e-04 0.000000000000000e+00 0.000000000000000e+00 
8.125000000000001e-04 0.000000000000000e+00 0.000000000000000e+00 
8.437500000000000e-04 0.000000000000000e+00 0.000000000000000e+00 
8.437500000000000e-04 0.000000000000000e+00 0.000000000000000e+00 
8.750000000000000e-04 0.000000000000000e+00 0.000000000000000e+00 
8.750000000000000e-04 0.000000000000000e+00 0.000000000000000e+00 
9.062500000000000e-04 0.000000000000000e+00 0.000000000000000e+00 
9.062500000000000e-04 0.000000000000000e+00 0.000000000000000e+00 
9.375000000000000e-04 0.000000000000000e+00 0.000000000000000e+00 
9.375000000000000e-04 0.000000000000000e+00 0.000000000000000e+00 
9.687500000000000e-04 0.000000000000000e+00 0.000000000000000e+00 
9.687500000000000e-04 0.000000000000000e+00 0.000000000000000e+00 
1.000000000000000e-03 0.000000000000000e+00 0.000000000000000e+00 
    </DataArray>
  </Points>

  <Cells>
    <DataArray type="Int32" Name="connectivity" format="ascii">
0 1 2 3 4 5 6 7 8 9 10 11 12 13 14 15 16 17 18 19 20 21 22 23 24 25 26 27 28 29 30 31 32 33 34 35 36 37 38 39 40 41 42 43 44 45 46 47 48 49 50 51 52 53 54 55 56 57 58 59 60 61 62 63     </DataArray>
    <DataArray type="Int32" Name="offsets" format="ascii">
2 4 6 8 10 12 14 16 18 20 22 24 26 28 30 32 34 36 38 40 42 44 46 48 50 52 54 56 58 60 62 64     </DataArray>
    <DataArray type="UInt8" Name="types" format="ascii">
3 3 3 3 3 3 3 3 3 3 3 3 3 3 3 3 3 3 3 3 3 3 3 3 3 3 3 3 3 3 3 3     </DataArray>
  </Cells>

  <PointData>
    <DataArray type="Float64" Name="phi_1" format="ascii">
7.210716708064356e+03 
7.215576601863660e+03 
7.215576601863660e+03 
7.230144728458383e+03 
7.230144728458383e+03 
7.254386447848634e+03 
7.254386447848634e+03 
7.288244108090302e+03 
7.288244108090302e+03 
7.331637167487298e+03 
7.331637167487298e+03 
7.384462365860772e+03 
7.384462365860772e+03 
7.446593945067028e+03 
7.446593945067028e+03 
7.517883918947027e+03 
7.517883918947027e+03 
7.598162392876956e+03 
7.598162392876956e+03 
7.687237933042147e+03 
7.687237933042147e+03 
7.784897985497902e+03 
7.784897985497902e+03 
7.890909344969999e+03 
7.890909344969999e+03 
8.005018673246041e+03 
8.005018673246041e+03 
8.126953066849128e+03 
8.126953066849128e+03 
8.256420673533150e+03 
8.256420673533150e+03 
8.393111356963112e+03 
8.393111356963112e+03 
8.536697408742804e+03 
8.536697408742804e+03 
8.686834306775401e+03 
8.686834306775401e+03 
8.843161518668936e+03 
8.843161518668936e+03 
9.005303348920879e+03 
9.005303348920879e+03 
9.172869827521159e+03 
9.172869827521159e+03 
9.345457640715858e+03 
9.345457640715858e+03 
9.522651091962811e+03 
9.522651091962811e+03 
9.704023127972972e+03 
9.704023127972972e+03 
9.889136287215062e+03 
9.889136287215062e+03 
1.007754409607581e+04 
1.007754409607581e+04 
1.026879092090025e+04 
1.026879092090025e+04 
1.046241776624017e+04 
1.046241776624017e+04 
1.065794578481102e+04 
1.065794578481102e+04 
1.085494385158615e+04 
1.085494385158615e+04 
1.105277955443689e+04 
1.105277955443689e+04 
1.125156268823250e+04 
    </DataArray>
    <DataArray type="Float64" Name="phiAnalytic_1" format="ascii">
7.398386811248383e+03 
7.403027785499734e+03 
7.403027785499734e+03 
7.416939535205093e+03 
7.416939535205093e+03 
7.440088567973644e+03 
7.440088567973644e+03 
7.472419152277283e+03 
7.472419152277283e+03 
7.513853450922213e+03 
7.513853450922213e+03 
7.564291707482865e+03 
7.564291707482865e+03 
7.623612485272482e+03 
7.623612485272482e+03 
7.691672958303861e+03 
7.691672958303861e+03 
7.768309253573778e+03 
7.768309253573778e+03 
7.853336843885384e+03 
7.853336843885384e+03 
7.946550990304663e+03 
7.946550990304663e+03 
8.047727233230242e+03 
8.047727233230242e+03 
8.156621930940300e+03 
8.156621930940300e+03 
8.272972844366772e+03 
8.272972844366772e+03 
8.396499766735235e+03 
8.396499766735235e+03 
8.526905196599422e+03 
8.526905196599422e+03 
8.663875052692503e+03 
8.663875052692503e+03 
8.807079428913088e+03 
8.807079428913088e+03 
8.956173387663190e+03 
8.956173387663190e+03 
9.110797789657940e+03 
9.110797789657940e+03 
9.270580158233446e+03 
9.270580158233446e+03 
9.435135576089848e+03 
9.435135576089848e+03 
9.604067612321911e+03 
9.604067612321911e+03 
9.776969277509730e+03 
9.776969277509730e+03 
9.953424004567392e+03 
9.953424004567392e+03 
1.013300665297863e+04 
1.013300665297863e+04 
1.031528453398513e+04 
1.031528453398513e+04 
1.049981845423649e+04 
1.049981845423649e+04 
1.068616377536008e+04 
1.068616377536008e+04 
1.087387148686548e+04 
1.087387148686548e+04 
1.106248928976132e+04 
1.106248928976132e+04 
1.125156268823250e+04 
    </DataArray>
    <DataArray type="Float64" Name="phi_2" format="ascii">
-1.761029225135187e+05 
-1.761012520216678e+05 
-1.761012520216678e+05 
-1.760962512581144e+05 
-1.760962512581144e+05 
-1.760879521801729e+05 
-1.760879521801729e+05 
-1.760764074606898e+05 
-1.760764074606898e+05 
-1.760616896255730e+05 
-1.760616896255730e+05 
-1.760438898881147e+05 
-1.760438898881147e+05 
-1.760231167189448e+05 
-1.760231167189448e+05 
-1.759994941976355e+05 
-1.759994941976355e+05 
-1.759731601967008e+05 
-1.759731601967008e+05 
-1.759442644509050e+05 
-1.759442644509050e+05 
-1.759129665644985e+05 
-1.759129665644985e+05 
-1.758794340064994e+05 
-1.758794340064994e+05 
-1.758438401397974e+05 
-1.758438401397974e+05 
-1.758063623241226e+05 
-1.758063623241226e+05 
-1.757671801262758e+05 
-1.757671801262758e+05 
-1.757264736639126e+05 
-1.757264736639126e+05 
-1.756844221020404e+05 
-1.756844221020404e+05 
-1.756412023145633e+05 
-1.756412023145633e+05 
-1.755969877169785e+05 
-1.755969877169785e+05 
-1.755519472708611e+05 
-1.755519472708611e+05 
-1.755062446561878e+05 
-1.755062446561878e+05 
-1.754600376038851e+05 
-1.754600376038851e+05 
-1.754134773781910e+05 
-1.754134773781910e+05 
-1.753667083965525e+05 
-1.753667083965525e+05 
-1.753198679733269e+05 
-1.753198679733269e+05 
-1.752730861739370e+05 
-1.752730861739370e+05 
-1.752264857626367e+05 
-1.752264857626367e+05 
-1.751801822401727e+05 
-1.751801822401727e+05 
-1.751342839214260e+05 
-1.751342839214260e+05 
-1.750888921761199e+05 
-1.750888921761199e+05 
-1.750441013265957e+05 
-1.750441013265957e+05 
-1.750000000000000e+05 
    </DataArray>
    <DataArray type="Float64" Name="phiAnalytic_2" format="ascii">
-1.760392326292401e+05 
-1.760376781648450e+05 
-1.760376781648450e+05 
-1.760330243460791e+05 
-1.760330243460791e+05 
-1.760252997445490e+05 
-1.760252997445490e+05 
-1.760145514791394e+05 
-1.760145514791394e+05 
-1.760008444827028e+05 
-1.760008444827028e+05 
-1.759842605091744e+05 
-1.759842605091744e+05 
-1.759648969126059e+05 
-1.759648969126059e+05 
-1.759428652355939e+05 
-1.759428652355939e+05 
-1.759182896486513e+05 
-1.759182896486513e+05 
-1.758913052841375e+05 
-1.758913052841375e+05 
-1.758620565084760e+05 
-1.758620565084760e+05 
-1.758306951747208e+05 
-1.758306951747208e+05 
-1.757973788943489e+05 
-1.757973788943489e+05 
-1.757622693627918e+05 
-1.757622693627918e+05 
-1.757255307680301e+05 
-1.757255307680301e+05 
-1.756873283059270e+05 
-1.756873283059270e+05 
-1.756478268201960e+05 
-1.756478268201960e+05 
-1.756071895792796e+05 
-1.756071895792796e+05 
-1.755655771971772e+05 
-1.755655771971772e+05 
-1.755231467005849e+05 
-1.755231467005849e+05 
-1.754800507406859e+05 
-1.754800507406859e+05 
-1.754364369446257e+05 
-1.754364369446257e+05 
-1.753924473991086e+05 
-1.753924473991086e+05 
-1.753482182566492e+05 
-1.753482182566492e+05 
-1.753038794537215e+05 
-1.753038794537215e+05 
-1.752595545293194e+05 
-1.752595545293194e+05 
-1.752153605321676e+05 
-1.752153605321676e+05 
-1.751714080049324e+05 
-1.751714080049324e+05 
-1.751278010341849e+05 
-1.751278010341849e+05 
-1.750846373554913e+05 
-1.750846373554913e+05 
-1.750420085037799e+05 
-1.750420085037799e+05 
-1.750000000000000e+05 
    </DataArray>
  </PointData>
  <CellData>
    <DataArray type="Float64" Name="Owner" format="ascii">
0.000000000000000e+00 
0.000000000000000e+00 
0.000000000000000e+00 
0.000000000000000e+00 
0.000000000000000e+00 
0.000000000000000e+00 
0.000000000000000e+00 
0.000000000000000e+00 
0.000000000000000e+00 
0.000000000000000e+00 
0.000000000000000e+00 
0.000000000000000e+00 
0.000000000000000e+00 
0.000000000000000e+00 
0.000000000000000e+00 
0.000000000000000e+00 
0.000000000000000e+00 
0.000000000000000e+00 
0.000000000000000e+00 
0.000000000000000e+00 
0.000000000000000e+00 
0.000000000000000e+00 
0.000000000000000e+00 
0.000000000000000e+00 
0.000000000000000e+00 
0.000000000000000e+00 
0.000000000000000e+00 
0.000000000000000e+00 
0.000000000000000e+00 
0.000000000000000e+00 
0.000000000000000e+00 
0.000000000000000e+00 
0.000000000000000e+00 
0.000000000000000e+00 
0.000000000000000e+00 
0.000000000000000e+00 
0.000000000000000e+00 
0.000000000000000e+00 
0.000000000000000e+00 
0.000000000000000e+00 
0.000000000000000e+00 
0.000000000000000e+00 
0.000000000000000e+00 
0.000000000000000e+00 
0.000000000000000e+00 
0.000000000000000e+00 
0.000000000000000e+00 
0.000000000000000e+00 
0.000000000000000e+00 
0.000000000000000e+00 
0.000000000000000e+00 
0.000000000000000e+00 
0.000000000000000e+00 
0.000000000000000e+00 
0.000000000000000e+00 
0.000000000000000e+00 
0.000000000000000e+00 
0.000000000000000e+00 
0.000000000000000e+00 
0.000000000000000e+00 
0.000000000000000e+00 
0.000000000000000e+00 
0.000000000000000e+00 
0.000000000000000e+00 
    </DataArray>
  </CellData>
</Piece>
</UnstructuredGrid>
</VTKFile>
