<?xml version="1.0" ?> 
<!-- 
# vtk DataFile Version 3.0
-->
<VTKFile type="UnstructuredGrid" version="0.1" compressor="vtkZLibDataCompressor" byte_order="LittleEndian">
<UnstructuredGrid>
<FieldData>
<DataArray type="Float32" Name="TIME" NumberOfTuples="1" format="ascii">111.6071428575</DataArray>
</FieldData>
<Piece NumberOfPoints="64" NumberOfCells="32" >
  <Points>
    <DataArray type="Float64" NumberOfComponents="3" format="ascii">
0.000000000000000e+00 0.000000000000000e+00 0.000000000000000e+00 
3.125000000000000e-05 0.000000000000000e+00 0.000000000000000e+00 
3.125000000000000e-05 0.000000000000000e+00 0.000000000000000e+00 
6.250000000000000e-05 0.000000000000000e+00 0.000000000000000e+00 
6.250000000000000e-05 0.000000000000000e+00 0.000000000000000e+00 
9.375000000000000e-05 0.000000000000000e+00 0.000000000000000e+00 
9.375000000000000e-05 0.000000000000000e+00 0.000000000000000e+00 
1.250000000000000e-04 0.000000000000000e+00 0.000000000000000e+00 
1.250000000000000e-04 0.000000000000000e+00 0.000000000000000e+00 
1.562500000000000e-04 0.000000000000000e+00 0.000000000000000e+00 
1.562500000000000e-04 0.000000000000000e+00 0.000000000000000e+00 
1.875000000000000e-04 0.000000000000000e+00 0.000000000000000e+00 
1.875000000000000e-04 0.000000000000000e+00 0.000000000000000e+00 
2.187500000000000e-04 0.000000000000000e+00 0.000000000000000e+00 
2.187500000000000e-04 0.000000000000000e+00 0.000000000000000e+00 
2.500000000000000e-04 0.000000000000000e+00 0.000000000000000e+00 
2.500000000000000e-04 0.000000000000000e+00 0.000000000000000e+00 
2.812500000000000e-04 0.000000000000000e+00 0.000000000000000e+00 
2.812500000000000e-04 0.000000000000000e+00 0.000000000000000e+00 
3.125000000000000e-04 0.000000000000000e+00 0.000000000000000e+00 
3.125000000000000e-04 0.000000000000000e+00 0.000000000000000e+00 
3.437500000000000e-04 0.000000000000000e+00 0.000000000000000e+00 
3.437500000000000e-04 0.000000000000000e+00 0.000000000000000e+00 
3.750000000000000e-04 0.000000000000000e+00 0.000000000000000e+00 
3.750000000000000e-04 0.000000000000000e+00 0.000000000000000e+00 
4.062500000000000e-04 0.000000000000000e+00 0.000000000000000e+00 
4.062500000000000e-04 0.000000000000000e+00 0.000000000000000e+00 
4.375000000000000e-04 0.000000000000000e+00 0.000000000000000e+00 
4.375000000000000e-04 0.000000000000000e+00 0.000000000000000e+00 
4.687500000000000e-04 0.000000000000000e+00 0.000000000000000e+00 
4.687500000000000e-04 0.000000000000000e+00 0.000000000000000e+00 
5.000000000000000e-04 0.000000000000000e+00 0.000000000000000e+00 
5.000000000000000e-04 0.000000000000000e+00 0.000000000000000e+00 
5.312500000000000e-04 0.000000000000000e+00 0.000000000000000e+00 
5.312500000000000e-04 0.000000000000000e+00 0.000000000000000e+00 
5.625000000000001e-04 0.000000000000000e+00 0.000000000000000e+00 
5.625000000000001e-04 0.000000000000000e+00 0.000000000000000e+00 
5.937500000000000e-04 0.000000000000000e+00 0.000000000000000e+00 
5.937500000000000e-04 0.000000000000000e+00 0.000000000000000e+00 
6.250000000000000e-04 0.000000000000000e+00 0.000000000000000e+00 
6.250000000000000e-04 0.000000000000000e+00 0.000000000000000e+00 
6.562500000000000e-04 0.000000000000000e+00 0.000000000000000e+00 
6.562500000000000e-04 0.000000000000000e+00 0.000000000000000e+00 
6.875000000000000e-04 0.000000000000000e+00 0.000000000000000e+00 
6.875000000000000e-04 0.000000000000000e+00 0.000000000000000e+00 
7.187500000000000e-04 0.000000000000000e+00 0.000000000000000e+00 
7.187500000000000e-04 0.000000000000000e+00 0.000000000000000e+00 
7.500000000000000e-04 0.000000000000000e+00 0.000000000000000e+00 
7.500000000000000e-04 0.000000000000000e+00 0.000000000000000e+00 
7.812500000000000e-04 0.000000000000000e+00 0.000000000000000e+00 
7.812500000000000e-04 0.000000000000000e+00 0.000000000000000e+00 
8.125000000000001e-04 0.000000000000000e+00 0.000000000000000e+00 
8.125000000000001e-04 0.000000000000000e+00 0.000000000000000e+00 
8.437500000000000e-04 0.000000000000000e+00 0.000000000000000e+00 
8.437500000000000e-04 0.000000000000000e+00 0.000000000000000e+00 
8.750000000000000e-04 0.000000000000000e+00 0.000000000000000e+00 
8.750000000000000e-04 0.000000000000000e+00 0.000000000000000e+00 
9.062500000000000e-04 0.000000000000000e+00 0.000000000000000e+00 
9.062500000000000e-04 0.000000000000000e+00 0.000000000000000e+00 
9.375000000000000e-04 0.000000000000000e+00 0.000000000000000e+00 
9.375000000000000e-04 0.000000000000000e+00 0.000000000000000e+00 
9.687500000000000e-04 0.000000000000000e+00 0.000000000000000e+00 
9.687500000000000e-04 0.000000000000000e+00 0.000000000000000e+00 
1.000000000000000e-03 0.000000000000000e+00 0.000000000000000e+00 
    </DataArray>
  </Points>

  <Cells>
    <DataArray type="Int32" Name="connectivity" format="ascii">
0 1 2 3 4 5 6 7 8 9 10 11 12 13 14 15 16 17 18 19 20 21 22 23 24 25 26 27 28 29 30 31 32 33 34 35 36 37 38 39 40 41 42 43 44 45 46 47 48 49 50 51 52 53 54 55 56 57 58 59 60 61 62 63     </DataArray>
    <DataArray type="Int32" Name="offsets" format="ascii">
2 4 6 8 10 12 14 16 18 20 22 24 26 28 30 32 34 36 38 40 42 44 46 48 50 52 54 56 58 60 62 64     </DataArray>
    <DataArray type="UInt8" Name="types" format="ascii">
3 3 3 3 3 3 3 3 3 3 3 3 3 3 3 3 3 3 3 3 3 3 3 3 3 3 3 3 3 3 3 3     </DataArray>
  </Cells>

  <PointData>
    <DataArray type="Float64" Name="phi_1" format="ascii">
6.973616115263110e+02 
7.031356966570746e+02 
7.031356966570746e+02 
7.205305892332049e+02 
7.205305892332049e+02 
7.497640982242742e+02 
7.497640982242742e+02 
7.911989217254094e+02 
7.911989217254094e+02 
8.453422295689295e+02 
8.453422295689295e+02 
9.128451083585456e+02 
9.128451083585456e+02 
9.945017550293070e+02 
9.945017550293070e+02 
1.091248166891210e+03 
1.091248166891210e+03 
1.204159945738614e+03 
1.204159945738614e+03 
1.334448725854726e+03 
1.334448725854726e+03 
1.483456646742488e+03 
1.483456646742488e+03 
1.652648209949952e+03 
1.652648209949952e+03 
1.843598776359420e+03 
1.843598776359420e+03 
2.057978872613606e+03 
2.057978872613606e+03 
2.297533385486825e+03 
2.297533385486825e+03 
2.564054637983080e+03 
2.564054637983080e+03 
2.859348271438040e+03 
2.859348271438040e+03 
3.185190818852966e+03 
3.185190818852966e+03 
3.543277865089140e+03 
3.543277865089140e+03 
3.935161778933518e+03 
3.935161778933518e+03 
4.362178194036478e+03 
4.362178194036478e+03 
4.825360804500855e+03 
4.825360804500855e+03 
5.325344505113081e+03 
5.325344505113081e+03 
5.862258253795403e+03 
5.862258253795403e+03 
6.435608524874206e+03 
6.435608524874206e+03 
7.044163181042824e+03 
7.044163181042824e+03 
7.685820370706405e+03 
7.685820370706405e+03 
8.357559468850442e+03 
8.357559468850442e+03 
9.055150917504696e+03 
9.055150917504696e+03 
9.773965507144709e+03 
9.773965507144709e+03 
1.050578346555630e+04 
1.050578346555630e+04 
1.125156268823250e+04 
    </DataArray>
    <DataArray type="Float64" Name="phiAnalytic_1" format="ascii">
4.961827686561388e+02 
5.036756315409795e+02 
5.036756315409795e+02 
5.262448526988778e+02 
5.262448526988778e+02 
5.641603242155975e+02 
5.641603242155975e+02 
6.178651919843535e+02 
6.178651919843535e+02 
6.879658828031180e+02 
6.879658828031180e+02 
7.752182253339365e+02 
7.752182253339365e+02 
8.805097616173726e+02 
8.805097616173726e+02 
1.004838391695342e+03 
1.004838391695342e+03 
1.149287551244251e+03 
1.149287551244251e+03 
1.314998191236476e+03 
1.314998191236476e+03 
1.503137908657489e+03 
1.503137908657489e+03 
1.714867666150248e+03 
1.714867666150248e+03 
1.951306632941909e+03 
1.951306632941909e+03 
2.213495775319166e+03 
2.213495775319166e+03 
2.502360917227018e+03 
2.502360917227018e+03 
2.818676074683893e+03 
2.818676074683893e+03 
3.163027935804484e+03 
3.163027935804484e+03 
3.535782405583531e+03 
3.535782405583531e+03 
3.937054155985247e+03 
3.937054155985247e+03 
4.366680112921425e+03 
4.366680112921425e+03 
4.824197769193927e+03 
4.824197769193927e+03 
5.308829134711395e+03 
5.308829134711395e+03 
5.819471022249162e+03 
5.819471022249162e+03 
6.354692220511783e+03 
6.354692220511783e+03 
6.912737929932416e+03 
6.912737929932416e+03 
7.491541635913702e+03 
7.491541635913702e+03 
8.088744376054007e+03 
8.088744376054007e+03 
8.701721130543374e+03 
8.701721130543374e+03 
9.327613837458408e+03 
9.327613837458408e+03 
9.963370316650726e+03 
9.963370316650726e+03 
1.060578818674047e+04 
1.060578818674047e+04 
1.125156268823250e+04 
    </DataArray>
    <DataArray type="Float64" Name="phi_2" format="ascii">
-1.818934970013577e+05 
-1.818730009762253e+05 
-1.818730009762253e+05 
-1.818122632712378e+05 
-1.818122632712378e+05 
-1.817134360814107e+05 
-1.817134360814107e+05 
-1.815798035444220e+05 
-1.815798035444220e+05 
-1.814154096047596e+05 
-1.814154096047596e+05 
-1.812246660777286e+05 
-1.812246660777286e+05 
-1.810120091053196e+05 
-1.810120091053196e+05 
-1.807816426957409e+05 
-1.807816426957409e+05 
-1.805373783126476e+05 
-1.805373783126476e+05 
-1.802825588381695e+05 
-1.802825588381695e+05 
-1.800200456972074e+05 
-1.800200456972074e+05 
-1.797522469150633e+05 
-1.797522469150633e+05 
-1.794811675218167e+05 
-1.794811675218167e+05 
-1.792084688772299e+05 
-1.792084688772299e+05 
-1.789355283329684e+05 
-1.789355283329684e+05 
-1.786634944213483e+05 
-1.786634944213483e+05 
-1.783933353597454e+05 
-1.783933353597454e+05 
-1.781258802779723e+05 
-1.781258802779723e+05 
-1.778618534790626e+05 
-1.778618534790626e+05 
-1.776019024730891e+05 
-1.776019024730891e+05 
-1.773466206610454e+05 
-1.773466206610454e+05 
-1.770965655161119e+05 
-1.770965655161119e+05 
-1.768522729859199e+05 
-1.768522729859199e+05 
-1.766142686755008e+05 
-1.766142686755008e+05 
-1.763830761439563e+05 
-1.763830761439563e+05 
-1.761592224999506e+05 
-1.761592224999506e+05 
-1.759432409119874e+05 
-1.759432409119874e+05 
-1.757356703163437e+05 
-1.757356703163437e+05 
-1.755370486612012e+05 
-1.755370486612012e+05 
-1.753479073884675e+05 
-1.753479073884675e+05 
-1.751687328750046e+05 
-1.751687328750046e+05 
-1.750000000000000e+05 
    </DataArray>
    <DataArray type="Float64" Name="phiAnalytic_2" format="ascii">
-1.827371825753353e+05 
-1.827000297158326e+05 
-1.827000297158326e+05 
-1.825913728342150e+05 
-1.825913728342150e+05 
-1.824189167539305e+05 
-1.824189167539305e+05 
-1.821935132122519e+05 
-1.821935132122519e+05 
-1.819271171262361e+05 
-1.819271171262361e+05 
-1.816311329308477e+05 
-1.816311329308477e+05 
-1.813154393461179e+05 
-1.813154393461179e+05 
-1.809880344679448e+05 
-1.809880344679448e+05 
-1.806550906276380e+05 
-1.806550906276380e+05 
-1.803212108968626e+05 
-1.803212108968626e+05 
-1.799897442677151e+05 
-1.799897442677151e+05 
-1.796630828767914e+05 
-1.796630828767914e+05 
-1.793429104184865e+05 
-1.793429104184865e+05 
-1.790303961554709e+05 
-1.790303961554709e+05 
-1.787263402669604e+05 
-1.787263402669604e+05 
-1.784312798742066e+05 
-1.784312798742066e+05 
-1.781455650405032e+05 
-1.781455650405032e+05 
-1.778694126209212e+05 
-1.778694126209212e+05 
-1.776029441249422e+05 
-1.776029441249422e+05 
-1.773462122028344e+05 
-1.773462122028344e+05 
-1.770992191113833e+05 
-1.770992191113833e+05 
-1.768619295585772e+05 
-1.768619295585772e+05 
-1.766342796239138e+05 
-1.766342796239138e+05 
-1.764161829453617e+05 
-1.764161829453617e+05 
-1.762075350054622e+05 
-1.762075350054622e+05 
-1.760082160971973e+05 
-1.760082160971973e+05 
-1.758180933744635e+05 
-1.758180933744635e+05 
-1.756370222698454e+05 
-1.756370222698454e+05 
-1.754648474777651e+05 
-1.754648474777651e+05 
-1.753014036426026e+05 
-1.753014036426026e+05 
-1.751465158510308e+05 
-1.751465158510308e+05 
-1.750000000000000e+05 
    </DataArray>
  </PointData>
  <CellData>
    <DataArray type="Float64" Name="Owner" format="ascii">
0.000000000000000e+00 
0.000000000000000e+00 
0.000000000000000e+00 
0.000000000000000e+00 
0.000000000000000e+00 
0.000000000000000e+00 
0.000000000000000e+00 
0.000000000000000e+00 
0.000000000000000e+00 
0.000000000000000e+00 
0.000000000000000e+00 
0.000000000000000e+00 
0.000000000000000e+00 
0.000000000000000e+00 
0.000000000000000e+00 
0.000000000000000e+00 
0.000000000000000e+00 
0.000000000000000e+00 
0.000000000000000e+00 
0.000000000000000e+00 
0.000000000000000e+00 
0.000000000000000e+00 
0.000000000000000e+00 
0.000000000000000e+00 
0.000000000000000e+00 
0.000000000000000e+00 
0.000000000000000e+00 
0.000000000000000e+00 
0.000000000000000e+00 
0.000000000000000e+00 
0.000000000000000e+00 
0.000000000000000e+00 
0.000000000000000e+00 
0.000000000000000e+00 
0.000000000000000e+00 
0.000000000000000e+00 
0.000000000000000e+00 
0.000000000000000e+00 
0.000000000000000e+00 
0.000000000000000e+00 
0.000000000000000e+00 
0.000000000000000e+00 
0.000000000000000e+00 
0.000000000000000e+00 
0.000000000000000e+00 
0.000000000000000e+00 
0.000000000000000e+00 
0.000000000000000e+00 
0.000000000000000e+00 
0.000000000000000e+00 
0.000000000000000e+00 
0.000000000000000e+00 
0.000000000000000e+00 
0.000000000000000e+00 
0.000000000000000e+00 
0.000000000000000e+00 
0.000000000000000e+00 
0.000000000000000e+00 
0.000000000000000e+00 
0.000000000000000e+00 
0.000000000000000e+00 
0.000000000000000e+00 
0.000000000000000e+00 
0.000000000000000e+00 
    </DataArray>
  </CellData>
</Piece>
</UnstructuredGrid>
</VTKFile>
