<?xml version="1.0" ?> 
<!-- 
# vtk DataFile Version 3.0
-->
<VTKFile type="UnstructuredGrid" version="0.1" compressor="vtkZLibDataCompressor" byte_order="LittleEndian">
<UnstructuredGrid>
<FieldData>
<DataArray type="Float32" Name="TIME" NumberOfTuples="1" format="ascii">74.404761905</DataArray>
</FieldData>
<Piece NumberOfPoints="64" NumberOfCells="32" >
  <Points>
    <DataArray type="Float64" NumberOfComponents="3" format="ascii">
0.000000000000000e+00 0.000000000000000e+00 0.000000000000000e+00 
3.125000000000000e-05 0.000000000000000e+00 0.000000000000000e+00 
3.125000000000000e-05 0.000000000000000e+00 0.000000000000000e+00 
6.250000000000000e-05 0.000000000000000e+00 0.000000000000000e+00 
6.250000000000000e-05 0.000000000000000e+00 0.000000000000000e+00 
9.375000000000000e-05 0.000000000000000e+00 0.000000000000000e+00 
9.375000000000000e-05 0.000000000000000e+00 0.000000000000000e+00 
1.250000000000000e-04 0.000000000000000e+00 0.000000000000000e+00 
1.250000000000000e-04 0.000000000000000e+00 0.000000000000000e+00 
1.562500000000000e-04 0.000000000000000e+00 0.000000000000000e+00 
1.562500000000000e-04 0.000000000000000e+00 0.000000000000000e+00 
1.875000000000000e-04 0.000000000000000e+00 0.000000000000000e+00 
1.875000000000000e-04 0.000000000000000e+00 0.000000000000000e+00 
2.187500000000000e-04 0.000000000000000e+00 0.000000000000000e+00 
2.187500000000000e-04 0.000000000000000e+00 0.000000000000000e+00 
2.500000000000000e-04 0.000000000000000e+00 0.000000000000000e+00 
2.500000000000000e-04 0.000000000000000e+00 0.000000000000000e+00 
2.812500000000000e-04 0.000000000000000e+00 0.000000000000000e+00 
2.812500000000000e-04 0.000000000000000e+00 0.000000000000000e+00 
3.125000000000000e-04 0.000000000000000e+00 0.000000000000000e+00 
3.125000000000000e-04 0.000000000000000e+00 0.000000000000000e+00 
3.437500000000000e-04 0.000000000000000e+00 0.000000000000000e+00 
3.437500000000000e-04 0.000000000000000e+00 0.000000000000000e+00 
3.750000000000000e-04 0.000000000000000e+00 0.000000000000000e+00 
3.750000000000000e-04 0.000000000000000e+00 0.000000000000000e+00 
4.062500000000000e-04 0.000000000000000e+00 0.000000000000000e+00 
4.062500000000000e-04 0.000000000000000e+00 0.000000000000000e+00 
4.375000000000000e-04 0.000000000000000e+00 0.000000000000000e+00 
4.375000000000000e-04 0.000000000000000e+00 0.000000000000000e+00 
4.687500000000000e-04 0.000000000000000e+00 0.000000000000000e+00 
4.687500000000000e-04 0.000000000000000e+00 0.000000000000000e+00 
5.000000000000000e-04 0.000000000000000e+00 0.000000000000000e+00 
5.000000000000000e-04 0.000000000000000e+00 0.000000000000000e+00 
5.312500000000000e-04 0.000000000000000e+00 0.000000000000000e+00 
5.312500000000000e-04 0.000000000000000e+00 0.000000000000000e+00 
5.625000000000001e-04 0.000000000000000e+00 0.000000000000000e+00 
5.625000000000001e-04 0.000000000000000e+00 0.000000000000000e+00 
5.937500000000000e-04 0.000000000000000e+00 0.000000000000000e+00 
5.937500000000000e-04 0.000000000000000e+00 0.000000000000000e+00 
6.250000000000000e-04 0.000000000000000e+00 0.000000000000000e+00 
6.250000000000000e-04 0.000000000000000e+00 0.000000000000000e+00 
6.562500000000000e-04 0.000000000000000e+00 0.000000000000000e+00 
6.562500000000000e-04 0.000000000000000e+00 0.000000000000000e+00 
6.875000000000000e-04 0.000000000000000e+00 0.000000000000000e+00 
6.875000000000000e-04 0.000000000000000e+00 0.000000000000000e+00 
7.187500000000000e-04 0.000000000000000e+00 0.000000000000000e+00 
7.187500000000000e-04 0.000000000000000e+00 0.000000000000000e+00 
7.500000000000000e-04 0.000000000000000e+00 0.000000000000000e+00 
7.500000000000000e-04 0.000000000000000e+00 0.000000000000000e+00 
7.812500000000000e-04 0.000000000000000e+00 0.000000000000000e+00 
7.812500000000000e-04 0.000000000000000e+00 0.000000000000000e+00 
8.125000000000001e-04 0.000000000000000e+00 0.000000000000000e+00 
8.125000000000001e-04 0.000000000000000e+00 0.000000000000000e+00 
8.437500000000000e-04 0.000000000000000e+00 0.000000000000000e+00 
8.437500000000000e-04 0.000000000000000e+00 0.000000000000000e+00 
8.750000000000000e-04 0.000000000000000e+00 0.000000000000000e+00 
8.750000000000000e-04 0.000000000000000e+00 0.000000000000000e+00 
9.062500000000000e-04 0.000000000000000e+00 0.000000000000000e+00 
9.062500000000000e-04 0.000000000000000e+00 0.000000000000000e+00 
9.375000000000000e-04 0.000000000000000e+00 0.000000000000000e+00 
9.375000000000000e-04 0.000000000000000e+00 0.000000000000000e+00 
9.687500000000000e-04 0.000000000000000e+00 0.000000000000000e+00 
9.687500000000000e-04 0.000000000000000e+00 0.000000000000000e+00 
1.000000000000000e-03 0.000000000000000e+00 0.000000000000000e+00 
    </DataArray>
  </Points>

  <Cells>
    <DataArray type="Int32" Name="connectivity" format="ascii">
0 1 2 3 4 5 6 7 8 9 10 11 12 13 14 15 16 17 18 19 20 21 22 23 24 25 26 27 28 29 30 31 32 33 34 35 36 37 38 39 40 41 42 43 44 45 46 47 48 49 50 51 52 53 54 55 56 57 58 59 60 61 62 63     </DataArray>
    <DataArray type="Int32" Name="offsets" format="ascii">
2 4 6 8 10 12 14 16 18 20 22 24 26 28 30 32 34 36 38 40 42 44 46 48 50 52 54 56 58 60 62 64     </DataArray>
    <DataArray type="UInt8" Name="types" format="ascii">
3 3 3 3 3 3 3 3 3 3 3 3 3 3 3 3 3 3 3 3 3 3 3 3 3 3 3 3 3 3 3 3     </DataArray>
  </Cells>

  <PointData>
    <DataArray type="Float64" Name="phi_1" format="ascii">
3.275694493196909e+02 
3.310437833152174e+02 
3.310437833152174e+02 
3.415375981754019e+02 
3.415375981754019e+02 
3.592641809935174e+02 
3.592641809935174e+02 
3.845818920275195e+02 
3.845818920275195e+02 
4.179986349551235e+02 
4.179986349551235e+02 
4.601782996936008e+02 
4.601782996936008e+02 
5.119491881137953e+02 
5.119491881137953e+02 
5.743143196408712e+02 
5.743143196408712e+02 
6.484634131108705e+02 
6.484634131108705e+02 
7.357862556880131e+02 
7.357862556880131e+02 
8.378870799120697e+02 
8.378870799120697e+02 
9.565994527743837e+02 
9.565994527743837e+02 
1.094001017349176e+03 
1.094001017349176e+03 
1.252427203394500e+03 
1.252427203394500e+03 
1.434482724639814e+03 
1.434482724639814e+03 
1.643049290870778e+03 
1.643049290870778e+03 
1.881287461435158e+03 
1.881287461435158e+03 
2.152629926875893e+03 
2.152629926875893e+03 
2.460762692052217e+03 
2.460762692052217e+03 
2.809589609198645e+03 
2.809589609198645e+03 
3.203174403047811e+03 
3.203174403047811e+03 
3.645652745766586e+03 
3.645652745766586e+03 
4.141104722134595e+03 
4.141104722134595e+03 
4.693376170723813e+03 
4.693376170723813e+03 
5.305831401364613e+03 
5.305831401364613e+03 
5.981026939096000e+03 
5.981026939096000e+03 
6.720246700018504e+03 
6.720246700018504e+03 
7.523008779363655e+03 
7.523008779363655e+03 
8.385948475063789e+03 
8.385948475063789e+03 
9.303235460309759e+03 
9.303235460309759e+03 
1.025975652883956e+04 
1.025975652883956e+04 
1.125156268823250e+04 
    </DataArray>
    <DataArray type="Float64" Name="phiAnalytic_1" format="ascii">
1.315117742257514e+02 
1.351483901506521e+02 
1.351483901506521e+02 
1.461997933761157e+02 
1.461997933761157e+02 
1.650903873820526e+02 
1.650903873820526e+02 
1.925264706407881e+02 
1.925264706407881e+02 
2.294941098471350e+02 
2.294941098471350e+02 
2.772550656416060e+02 
2.772550656416060e+02 
3.373397546213569e+02 
3.373397546213569e+02 
4.115360547404593e+02 
4.115360547404593e+02 
5.018726667096076e+02 
5.018726667096076e+02 
6.105957458055359e+02 
6.105957458055359e+02 
7.401376272288881e+02 
7.401376272288881e+02 
8.930766897655899e+02 
8.930766897655899e+02 
1.072087737042933e+03 
1.072087737042933e+03 
1.279882716109055e+03 
1.279882716109055e+03 
1.519142124514195e+03 
1.519142124514195e+03 
1.792438056437733e+03 
1.792438056437733e+03 
2.102150474684216e+03 
2.102150474684216e+03 
2.450378930709256e+03 
2.450378930709256e+03 
2.838852546369469e+03 
2.838852546369469e+03 
3.268841573547144e+03 
3.268841573547144e+03 
3.741074216713380e+03 
3.741074216713380e+03 
4.255662598811151e+03 
4.255662598811151e+03 
4.812041740626328e+03 
4.812041740626328e+03 
5.408925187693835e+03 
5.408925187693835e+03 
6.044280450757188e+03 
6.044280450757188e+03 
6.715326736083989e+03 
6.715326736083989e+03 
7.418556557581755e+03 
7.418556557581755e+03 
8.149781786703470e+03 
8.149781786703470e+03 
8.904203565351158e+03 
8.904203565351158e+03 
9.676504348244154e+03 
9.676504348244154e+03 
1.046095922675690e+04 
1.046095922675690e+04 
1.125156268823250e+04 
    </DataArray>
    <DataArray type="Float64" Name="phi_2" format="ascii">
-1.837665055871286e+05 
-1.837402607343347e+05 
-1.837402607343347e+05 
-1.836626433582173e+05 
-1.836626433582173e+05 
-1.835368261861013e+05 
-1.835368261861013e+05 
-1.833675593790573e+05 
-1.833675593790573e+05 
-1.831605374557777e+05 
-1.831605374557777e+05 
-1.829217724034186e+05 
-1.829217724034186e+05 
-1.826570897893812e+05 
-1.826570897893812e+05 
-1.823717967648382e+05 
-1.823717967648382e+05 
-1.820705142956007e+05 
-1.820705142956007e+05 
-1.817571355868401e+05 
-1.817571355868401e+05 
-1.814348657017646e+05 
-1.814348657017646e+05 
-1.811063039804245e+05 
-1.811063039804245e+05 
-1.807735421192443e+05 
-1.807735421192443e+05 
-1.804382614233358e+05 
-1.804382614233358e+05 
-1.801018207647133e+05 
-1.801018207647133e+05 
-1.797653320062618e+05 
-1.797653320062618e+05 
-1.794297226693798e+05 
-1.794297226693798e+05 
-1.790957871466261e+05 
-1.790957871466261e+05 
-1.787642283803010e+05 
-1.787642283803010e+05 
-1.784356920576731e+05 
-1.784356920576731e+05 
-1.781107952748039e+05 
-1.781107952748039e+05 
-1.777901514510465e+05 
-1.777901514510465e+05 
-1.774743931143674e+05 
-1.774743931143674e+05 
-1.771641941054405e+05 
-1.771641941054405e+05 
-1.768602926953916e+05 
-1.768602926953916e+05 
-1.765635174800588e+05 
-1.765635174800588e+05 
-1.762748174900314e+05 
-1.762748174900314e+05 
-1.759953011673935e+05 
-1.759953011673935e+05 
-1.757262809341335e+05 
-1.757262809341335e+05 
-1.754693522991282e+05 
-1.754693522991282e+05 
-1.752264353230116e+05 
-1.752264353230116e+05 
-1.750000000000000e+05 
    </DataArray>
    <DataArray type="Float64" Name="phiAnalytic_2" format="ascii">
-1.860286774570010e+05 
-1.859610627688225e+05 
-1.859610627688225e+05 
-1.857662256715791e+05 
-1.857662256715791e+05 
-1.854650020726798e+05 
-1.854650020726798e+05 
-1.850839071157532e+05 
-1.850839071157532e+05 
-1.846485181328070e+05 
-1.846485181328070e+05 
-1.841798712723741e+05 
-1.841798712723741e+05 
-1.836936442147121e+05 
-1.836936442147121e+05 
-1.832008400113150e+05 
-1.832008400113150e+05 
-1.827089188531477e+05 
-1.827089188531477e+05 
-1.822228504940756e+05 
-1.822228504940756e+05 
-1.817459231247165e+05 
-1.817459231247165e+05 
-1.812803109058484e+05 
-1.812803109058484e+05 
-1.808274536434780e+05 
-1.808274536434780e+05 
-1.803883047078610e+05 
-1.803883047078610e+05 
-1.799634912889494e+05 
-1.799634912889494e+05 
-1.795534178852659e+05 
-1.795534178852659e+05 
-1.791583334831090e+05 
-1.791583334831090e+05 
-1.787783755753843e+05 
-1.787783755753843e+05 
-1.784135993501579e+05 
-1.784135993501579e+05 
-1.780639972994378e+05 
-1.780639972994378e+05 
-1.777295125627697e+05 
-1.777295125627697e+05 
-1.774100481119982e+05 
-1.774100481119982e+05 
-1.771054731302351e+05 
-1.771054731302351e+05 
-1.768156274667906e+05 
-1.768156274667906e+05 
-1.765403247529841e+05 
-1.765403247529841e+05 
-1.762793545750493e+05 
-1.762793545750493e+05 
-1.760324839791183e+05 
-1.760324839791183e+05 
-1.757994585044787e+05 
-1.757994585044787e+05 
-1.755800028895451e+05 
-1.755800028895451e+05 
-1.753738215606498e+05 
-1.753738215606498e+05 
-1.751805989907926e+05 
-1.751805989907926e+05 
-1.750000000000000e+05 
    </DataArray>
  </PointData>
  <CellData>
    <DataArray type="Float64" Name="Owner" format="ascii">
0.000000000000000e+00 
0.000000000000000e+00 
0.000000000000000e+00 
0.000000000000000e+00 
0.000000000000000e+00 
0.000000000000000e+00 
0.000000000000000e+00 
0.000000000000000e+00 
0.000000000000000e+00 
0.000000000000000e+00 
0.000000000000000e+00 
0.000000000000000e+00 
0.000000000000000e+00 
0.000000000000000e+00 
0.000000000000000e+00 
0.000000000000000e+00 
0.000000000000000e+00 
0.000000000000000e+00 
0.000000000000000e+00 
0.000000000000000e+00 
0.000000000000000e+00 
0.000000000000000e+00 
0.000000000000000e+00 
0.000000000000000e+00 
0.000000000000000e+00 
0.000000000000000e+00 
0.000000000000000e+00 
0.000000000000000e+00 
0.000000000000000e+00 
0.000000000000000e+00 
0.000000000000000e+00 
0.000000000000000e+00 
0.000000000000000e+00 
0.000000000000000e+00 
0.000000000000000e+00 
0.000000000000000e+00 
0.000000000000000e+00 
0.000000000000000e+00 
0.000000000000000e+00 
0.000000000000000e+00 
0.000000000000000e+00 
0.000000000000000e+00 
0.000000000000000e+00 
0.000000000000000e+00 
0.000000000000000e+00 
0.000000000000000e+00 
0.000000000000000e+00 
0.000000000000000e+00 
0.000000000000000e+00 
0.000000000000000e+00 
0.000000000000000e+00 
0.000000000000000e+00 
0.000000000000000e+00 
0.000000000000000e+00 
0.000000000000000e+00 
0.000000000000000e+00 
0.000000000000000e+00 
0.000000000000000e+00 
0.000000000000000e+00 
0.000000000000000e+00 
0.000000000000000e+00 
0.000000000000000e+00 
0.000000000000000e+00 
0.000000000000000e+00 
    </DataArray>
  </CellData>
</Piece>
</UnstructuredGrid>
</VTKFile>
