<?xml version="1.0" ?> 
<!-- 
# vtk DataFile Version 3.0
-->
<VTKFile type="UnstructuredGrid" version="0.1" compressor="vtkZLibDataCompressor" byte_order="LittleEndian">
<UnstructuredGrid>
<FieldData>
<DataArray type="Float32" Name="TIME" NumberOfTuples="1" format="ascii">37.2023809525</DataArray>
</FieldData>
<Piece NumberOfPoints="64" NumberOfCells="32" >
  <Points>
    <DataArray type="Float64" NumberOfComponents="3" format="ascii">
0.000000000000000e+00 0.000000000000000e+00 0.000000000000000e+00 
3.125000000000000e-05 0.000000000000000e+00 0.000000000000000e+00 
3.125000000000000e-05 0.000000000000000e+00 0.000000000000000e+00 
6.250000000000000e-05 0.000000000000000e+00 0.000000000000000e+00 
6.250000000000000e-05 0.000000000000000e+00 0.000000000000000e+00 
9.375000000000000e-05 0.000000000000000e+00 0.000000000000000e+00 
9.375000000000000e-05 0.000000000000000e+00 0.000000000000000e+00 
1.250000000000000e-04 0.000000000000000e+00 0.000000000000000e+00 
1.250000000000000e-04 0.000000000000000e+00 0.000000000000000e+00 
1.562500000000000e-04 0.000000000000000e+00 0.000000000000000e+00 
1.562500000000000e-04 0.000000000000000e+00 0.000000000000000e+00 
1.875000000000000e-04 0.000000000000000e+00 0.000000000000000e+00 
1.875000000000000e-04 0.000000000000000e+00 0.000000000000000e+00 
2.187500000000000e-04 0.000000000000000e+00 0.000000000000000e+00 
2.187500000000000e-04 0.000000000000000e+00 0.000000000000000e+00 
2.500000000000000e-04 0.000000000000000e+00 0.000000000000000e+00 
2.500000000000000e-04 0.000000000000000e+00 0.000000000000000e+00 
2.812500000000000e-04 0.000000000000000e+00 0.000000000000000e+00 
2.812500000000000e-04 0.000000000000000e+00 0.000000000000000e+00 
3.125000000000000e-04 0.000000000000000e+00 0.000000000000000e+00 
3.125000000000000e-04 0.000000000000000e+00 0.000000000000000e+00 
3.437500000000000e-04 0.000000000000000e+00 0.000000000000000e+00 
3.437500000000000e-04 0.000000000000000e+00 0.000000000000000e+00 
3.750000000000000e-04 0.000000000000000e+00 0.000000000000000e+00 
3.750000000000000e-04 0.000000000000000e+00 0.000000000000000e+00 
4.062500000000000e-04 0.000000000000000e+00 0.000000000000000e+00 
4.062500000000000e-04 0.000000000000000e+00 0.000000000000000e+00 
4.375000000000000e-04 0.000000000000000e+00 0.000000000000000e+00 
4.375000000000000e-04 0.000000000000000e+00 0.000000000000000e+00 
4.687500000000000e-04 0.000000000000000e+00 0.000000000000000e+00 
4.687500000000000e-04 0.000000000000000e+00 0.000000000000000e+00 
5.000000000000000e-04 0.000000000000000e+00 0.000000000000000e+00 
5.000000000000000e-04 0.000000000000000e+00 0.000000000000000e+00 
5.312500000000000e-04 0.000000000000000e+00 0.000000000000000e+00 
5.312500000000000e-04 0.000000000000000e+00 0.000000000000000e+00 
5.625000000000001e-04 0.000000000000000e+00 0.000000000000000e+00 
5.625000000000001e-04 0.000000000000000e+00 0.000000000000000e+00 
5.937500000000000e-04 0.000000000000000e+00 0.000000000000000e+00 
5.937500000000000e-04 0.000000000000000e+00 0.000000000000000e+00 
6.250000000000000e-04 0.000000000000000e+00 0.000000000000000e+00 
6.250000000000000e-04 0.000000000000000e+00 0.000000000000000e+00 
6.562500000000000e-04 0.000000000000000e+00 0.000000000000000e+00 
6.562500000000000e-04 0.000000000000000e+00 0.000000000000000e+00 
6.875000000000000e-04 0.000000000000000e+00 0.000000000000000e+00 
6.875000000000000e-04 0.000000000000000e+00 0.000000000000000e+00 
7.187500000000000e-04 0.000000000000000e+00 0.000000000000000e+00 
7.187500000000000e-04 0.000000000000000e+00 0.000000000000000e+00 
7.500000000000000e-04 0.000000000000000e+00 0.000000000000000e+00 
7.500000000000000e-04 0.000000000000000e+00 0.000000000000000e+00 
7.812500000000000e-04 0.000000000000000e+00 0.000000000000000e+00 
7.812500000000000e-04 0.000000000000000e+00 0.000000000000000e+00 
8.125000000000001e-04 0.000000000000000e+00 0.000000000000000e+00 
8.125000000000001e-04 0.000000000000000e+00 0.000000000000000e+00 
8.437500000000000e-04 0.000000000000000e+00 0.000000000000000e+00 
8.437500000000000e-04 0.000000000000000e+00 0.000000000000000e+00 
8.750000000000000e-04 0.000000000000000e+00 0.000000000000000e+00 
8.750000000000000e-04 0.000000000000000e+00 0.000000000000000e+00 
9.062500000000000e-04 0.000000000000000e+00 0.000000000000000e+00 
9.062500000000000e-04 0.000000000000000e+00 0.000000000000000e+00 
9.375000000000000e-04 0.000000000000000e+00 0.000000000000000e+00 
9.375000000000000e-04 0.000000000000000e+00 0.000000000000000e+00 
9.687500000000000e-04 0.000000000000000e+00 0.000000000000000e+00 
9.687500000000000e-04 0.000000000000000e+00 0.000000000000000e+00 
1.000000000000000e-03 0.000000000000000e+00 0.000000000000000e+00 
    </DataArray>
  </Points>

  <Cells>
    <DataArray type="Int32" Name="connectivity" format="ascii">
0 1 2 3 4 5 6 7 8 9 10 11 12 13 14 15 16 17 18 19 20 21 22 23 24 25 26 27 28 29 30 31 32 33 34 35 36 37 38 39 40 41 42 43 44 45 46 47 48 49 50 51 52 53 54 55 56 57 58 59 60 61 62 63     </DataArray>
    <DataArray type="Int32" Name="offsets" format="ascii">
2 4 6 8 10 12 14 16 18 20 22 24 26 28 30 32 34 36 38 40 42 44 46 48 50 52 54 56 58 60 62 64     </DataArray>
    <DataArray type="UInt8" Name="types" format="ascii">
3 3 3 3 3 3 3 3 3 3 3 3 3 3 3 3 3 3 3 3 3 3 3 3 3 3 3 3 3 3 3 3     </DataArray>
  </Cells>

  <PointData>
    <DataArray type="Float64" Name="phi_1" format="ascii">
1.051760421118286e+02 
1.064070383753134e+02 
1.064070383753134e+02 
1.101387629710656e+02 
1.101387629710656e+02 
1.164885973644632e+02 
1.164885973644632e+02 
1.256561439571235e+02 
1.256561439571235e+02 
1.379293535998825e+02 
1.379293535998825e+02 
1.536934371550937e+02 
1.536934371550937e+02 
1.734428636836618e+02 
1.734428636836618e+02 
1.977968243650754e+02 
1.977968243650754e+02 
2.275186365555414e+02 
2.275186365555414e+02 
2.635396818601256e+02 
2.635396818601256e+02 
3.069886163780400e+02 
3.069886163780400e+02 
3.592267608338956e+02 
3.592267608338956e+02 
4.218907758733441e+02 
4.218907758733441e+02 
4.969439586779108e+02 
4.969439586779108e+02 
5.867377685441913e+02 
5.867377685441913e+02 
6.940855101167682e+02 
6.940855101167682e+02 
8.223504838602761e+02 
8.223504838602761e+02 
9.755513668661108e+02 
9.755513668661108e+02 
1.158488125256640e+03 
1.158488125256640e+03 
1.376892408628913e+03 
1.376892408628913e+03 
1.637607119064258e+03 
1.637607119064258e+03 
1.948800862611692e+03 
1.948800862611692e+03 
2.320223669529279e+03 
2.320223669529279e+03 
2.763513356992103e+03 
2.763513356992103e+03 
3.292556565153258e+03 
3.292556565153258e+03 
3.923938555182388e+03 
3.923938555182388e+03 
4.677402673410867e+03 
4.677402673410867e+03 
5.576715209900833e+03 
5.576715209900833e+03 
6.649402120773503e+03 
6.649402120773503e+03 
7.931737067922520e+03 
7.931737067922520e+03 
9.452990243294524e+03 
9.452990243294524e+03 
1.125156268823250e+04 
    </DataArray>
    <DataArray type="Float64" Name="phiAnalytic_1" format="ascii">
2.791804720674210e+01 
2.810902159957907e+01 
2.810902159957907e+01 
2.872093867484283e+01 
2.872093867484283e+01 
2.987592033306049e+01 
2.987592033306049e+01 
3.179483206652387e+01 
3.179483206652387e+01 
3.482390944535670e+01 
3.482390944535670e+01 
3.947312281792144e+01 
3.947312281792144e+01 
4.646695036202480e+01 
4.646695036202480e+01 
5.680782622122227e+01 
5.680782622122227e+01 
7.185169596979115e+01 
7.185169596979115e+01 
9.339378938193919e+01 
9.339378938193919e+01 
1.237609032431932e+02 
1.237609032431932e+02 
1.659042411066684e+02 
1.659042411066684e+02 
2.234843444437633e+02 
2.234843444437633e+02 
3.009371417416345e+02 
3.009371417416345e+02 
4.035080170671578e+02 
4.035080170671578e+02 
5.372395187217038e+02 
5.372395187217038e+02 
7.088983859733273e+02 
7.088983859733273e+02 
9.258294191542095e+02 
9.258294191542095e+02 
1.195727671348610e+03 
1.195727671348610e+03 
1.526326579902781e+03 
1.526326579902781e+03 
1.925007746262039e+03 
1.925007746262039e+03 
2.398347510188398e+03 
2.398347510188398e+03 
2.951625288021609e+03 
2.951625288021609e+03 
3.588327611675558e+03 
3.588327611675558e+03 
4.309688538048438e+03 
4.309688538048438e+03 
5.114310287628618e+03 
5.114310287628618e+03 
5.997906603362145e+03 
5.997906603362145e+03 
6.953204896051682e+03 
6.953204896051682e+03 
7.970031930828368e+03 
7.970031930828368e+03 
9.035592511553643e+03 
9.035592511553643e+03 
1.013493290688967e+04 
1.013493290688967e+04 
1.125156268823250e+04 
    </DataArray>
    <DataArray type="Float64" Name="phi_2" format="ascii">
-1.865826057784108e+05 
-1.865536498462131e+05 
-1.865536498462131e+05 
-1.864678875287383e+05 
-1.864678875287383e+05 
-1.863284624966258e+05 
-1.863284624966258e+05 
-1.861400937813437e+05 
-1.861400937813437e+05 
-1.859084604421524e+05 
-1.859084604421524e+05 
-1.856395882045870e+05 
-1.856395882045870e+05 
-1.853393512926777e+05 
-1.853393512926777e+05 
-1.850131383130022e+05 
-1.850131383130022e+05 
-1.846656767074142e+05 
-1.846656767074142e+05 
-1.843009804772972e+05 
-1.843009804772972e+05 
-1.839223784181067e+05 
-1.839223784181067e+05 
-1.835325858717257e+05 
-1.835325858717257e+05 
-1.831337935125534e+05 
-1.831337935125534e+05 
-1.827277568229726e+05 
-1.827277568229726e+05 
-1.823158776407560e+05 
-1.823158776407560e+05 
-1.818992742436828e+05 
-1.818992742436828e+05 
-1.814788393966058e+05 
-1.814788393966058e+05 
-1.810552872923456e+05 
-1.810552872923456e+05 
-1.806291909327462e+05 
-1.806291909327462e+05 
-1.802010116184956e+05 
-1.802010116184956e+05 
-1.797711220925119e+05 
-1.797711220925119e+05 
-1.793398246731398e+05 
-1.793398246731398e+05 
-1.789073654436973e+05 
-1.789073654436973e+05 
-1.784739454570490e+05 
-1.784739454570490e+05 
-1.780397293410121e+05 
-1.780397293410121e+05 
-1.776048528625145e+05 
-1.776048528625145e+05 
-1.771694263269850e+05 
-1.771694263269850e+05 
-1.767335462748878e+05 
-1.767335462748878e+05 
-1.762972739625195e+05 
-1.762972739625195e+05 
-1.758607242963876e+05 
-1.758607242963876e+05 
-1.754237724056161e+05 
-1.754237724056161e+05 
-1.750000000000000e+05 
    </DataArray>
    <DataArray type="Float64" Name="phiAnalytic_2" format="ascii">
-1.898704084410389e+05 
-1.898535097234705e+05 
-1.898535097234705e+05 
-1.898001262493087e+05 
-1.898001262493087e+05 
-1.897023953642170e+05 
-1.897023953642170e+05 
-1.895480865276929e+05 
-1.895480865276929e+05 
-1.893225128965651e+05 
-1.893225128965651e+05 
-1.890118776944690e+05 
-1.890118776944690e+05 
-1.886075294764298e+05 
-1.886075294764298e+05 
-1.881094534466225e+05 
-1.881094534466225e+05 
-1.875271041910457e+05 
-1.875271041910457e+05 
-1.868771066809576e+05 
-1.868771066809576e+05 
-1.861792530279155e+05 
-1.861792530279155e+05 
-1.854528121454174e+05 
-1.854528121454174e+05 
-1.847142960755732e+05 
-1.847142960755732e+05 
-1.839766985473041e+05 
-1.839766985473041e+05 
-1.832496734361732e+05 
-1.832496734361732e+05 
-1.825401172447509e+05 
-1.825401172447509e+05 
-1.818528196095090e+05 
-1.818528196095090e+05 
-1.811910299171681e+05 
-1.811910299171681e+05 
-1.805568979094726e+05 
-1.805568979094726e+05 
-1.799517958817687e+05 
-1.799517958817687e+05 
-1.793765460715765e+05 
-1.793765460715765e+05 
-1.788315777642832e+05 
-1.788315777642832e+05 
-1.783170344084326e+05 
-1.783170344084326e+05 
-1.778328459698907e+05 
-1.778328459698907e+05 
-1.773787774019087e+05 
-1.773787774019087e+05 
-1.769544608013952e+05 
-1.769544608013952e+05 
-1.765594164588997e+05 
-1.765594164588997e+05 
-1.761930663790461e+05 
-1.761930663790461e+05 
-1.758547427469268e+05 
-1.758547427469268e+05 
-1.755436930840811e+05 
-1.755436930840811e+05 
-1.752590833580899e+05 
-1.752590833580899e+05 
-1.750000000000000e+05 
    </DataArray>
  </PointData>
  <CellData>
    <DataArray type="Float64" Name="Owner" format="ascii">
0.000000000000000e+00 
0.000000000000000e+00 
0.000000000000000e+00 
0.000000000000000e+00 
0.000000000000000e+00 
0.000000000000000e+00 
0.000000000000000e+00 
0.000000000000000e+00 
0.000000000000000e+00 
0.000000000000000e+00 
0.000000000000000e+00 
0.000000000000000e+00 
0.000000000000000e+00 
0.000000000000000e+00 
0.000000000000000e+00 
0.000000000000000e+00 
0.000000000000000e+00 
0.000000000000000e+00 
0.000000000000000e+00 
0.000000000000000e+00 
0.000000000000000e+00 
0.000000000000000e+00 
0.000000000000000e+00 
0.000000000000000e+00 
0.000000000000000e+00 
0.000000000000000e+00 
0.000000000000000e+00 
0.000000000000000e+00 
0.000000000000000e+00 
0.000000000000000e+00 
0.000000000000000e+00 
0.000000000000000e+00 
0.000000000000000e+00 
0.000000000000000e+00 
0.000000000000000e+00 
0.000000000000000e+00 
0.000000000000000e+00 
0.000000000000000e+00 
0.000000000000000e+00 
0.000000000000000e+00 
0.000000000000000e+00 
0.000000000000000e+00 
0.000000000000000e+00 
0.000000000000000e+00 
0.000000000000000e+00 
0.000000000000000e+00 
0.000000000000000e+00 
0.000000000000000e+00 
0.000000000000000e+00 
0.000000000000000e+00 
0.000000000000000e+00 
0.000000000000000e+00 
0.000000000000000e+00 
0.000000000000000e+00 
0.000000000000000e+00 
0.000000000000000e+00 
0.000000000000000e+00 
0.000000000000000e+00 
0.000000000000000e+00 
0.000000000000000e+00 
0.000000000000000e+00 
0.000000000000000e+00 
0.000000000000000e+00 
0.000000000000000e+00 
    </DataArray>
  </CellData>
</Piece>
</UnstructuredGrid>
</VTKFile>
