<?xml version="1.0" ?> 
<!-- 
# vtk DataFile Version 3.0
-->
<VTKFile type="UnstructuredGrid" version="0.1" compressor="vtkZLibDataCompressor" byte_order="LittleEndian">
<UnstructuredGrid>
<FieldData>
<DataArray type="Float32" Name="TIME" NumberOfTuples="1" format="ascii">1078.8690476225</DataArray>
</FieldData>
<Piece NumberOfPoints="64" NumberOfCells="32" >
  <Points>
    <DataArray type="Float64" NumberOfComponents="3" format="ascii">
0.000000000000000e+00 0.000000000000000e+00 0.000000000000000e+00 
3.125000000000000e-05 0.000000000000000e+00 0.000000000000000e+00 
3.125000000000000e-05 0.000000000000000e+00 0.000000000000000e+00 
6.250000000000000e-05 0.000000000000000e+00 0.000000000000000e+00 
6.250000000000000e-05 0.000000000000000e+00 0.000000000000000e+00 
9.375000000000000e-05 0.000000000000000e+00 0.000000000000000e+00 
9.375000000000000e-05 0.000000000000000e+00 0.000000000000000e+00 
1.250000000000000e-04 0.000000000000000e+00 0.000000000000000e+00 
1.250000000000000e-04 0.000000000000000e+00 0.000000000000000e+00 
1.562500000000000e-04 0.000000000000000e+00 0.000000000000000e+00 
1.562500000000000e-04 0.000000000000000e+00 0.000000000000000e+00 
1.875000000000000e-04 0.000000000000000e+00 0.000000000000000e+00 
1.875000000000000e-04 0.000000000000000e+00 0.000000000000000e+00 
2.187500000000000e-04 0.000000000000000e+00 0.000000000000000e+00 
2.187500000000000e-04 0.000000000000000e+00 0.000000000000000e+00 
2.500000000000000e-04 0.000000000000000e+00 0.000000000000000e+00 
2.500000000000000e-04 0.000000000000000e+00 0.000000000000000e+00 
2.812500000000000e-04 0.000000000000000e+00 0.000000000000000e+00 
2.812500000000000e-04 0.000000000000000e+00 0.000000000000000e+00 
3.125000000000000e-04 0.000000000000000e+00 0.000000000000000e+00 
3.125000000000000e-04 0.000000000000000e+00 0.000000000000000e+00 
3.437500000000000e-04 0.000000000000000e+00 0.000000000000000e+00 
3.437500000000000e-04 0.000000000000000e+00 0.000000000000000e+00 
3.750000000000000e-04 0.000000000000000e+00 0.000000000000000e+00 
3.750000000000000e-04 0.000000000000000e+00 0.000000000000000e+00 
4.062500000000000e-04 0.000000000000000e+00 0.000000000000000e+00 
4.062500000000000e-04 0.000000000000000e+00 0.000000000000000e+00 
4.375000000000000e-04 0.000000000000000e+00 0.000000000000000e+00 
4.375000000000000e-04 0.000000000000000e+00 0.000000000000000e+00 
4.687500000000000e-04 0.000000000000000e+00 0.000000000000000e+00 
4.687500000000000e-04 0.000000000000000e+00 0.000000000000000e+00 
5.000000000000000e-04 0.000000000000000e+00 0.000000000000000e+00 
5.000000000000000e-04 0.000000000000000e+00 0.000000000000000e+00 
5.312500000000000e-04 0.000000000000000e+00 0.000000000000000e+00 
5.312500000000000e-04 0.000000000000000e+00 0.000000000000000e+00 
5.625000000000001e-04 0.000000000000000e+00 0.000000000000000e+00 
5.625000000000001e-04 0.000000000000000e+00 0.000000000000000e+00 
5.937500000000000e-04 0.000000000000000e+00 0.000000000000000e+00 
5.937500000000000e-04 0.000000000000000e+00 0.000000000000000e+00 
6.250000000000000e-04 0.000000000000000e+00 0.000000000000000e+00 
6.250000000000000e-04 0.000000000000000e+00 0.000000000000000e+00 
6.562500000000000e-04 0.000000000000000e+00 0.000000000000000e+00 
6.562500000000000e-04 0.000000000000000e+00 0.000000000000000e+00 
6.875000000000000e-04 0.000000000000000e+00 0.000000000000000e+00 
6.875000000000000e-04 0.000000000000000e+00 0.000000000000000e+00 
7.187500000000000e-04 0.000000000000000e+00 0.000000000000000e+00 
7.187500000000000e-04 0.000000000000000e+00 0.000000000000000e+00 
7.500000000000000e-04 0.000000000000000e+00 0.000000000000000e+00 
7.500000000000000e-04 0.000000000000000e+00 0.000000000000000e+00 
7.812500000000000e-04 0.000000000000000e+00 0.000000000000000e+00 
7.812500000000000e-04 0.000000000000000e+00 0.000000000000000e+00 
8.125000000000001e-04 0.000000000000000e+00 0.000000000000000e+00 
8.125000000000001e-04 0.000000000000000e+00 0.000000000000000e+00 
8.437500000000000e-04 0.000000000000000e+00 0.000000000000000e+00 
8.437500000000000e-04 0.000000000000000e+00 0.000000000000000e+00 
8.750000000000000e-04 0.000000000000000e+00 0.000000000000000e+00 
8.750000000000000e-04 0.000000000000000e+00 0.000000000000000e+00 
9.062500000000000e-04 0.000000000000000e+00 0.000000000000000e+00 
9.062500000000000e-04 0.000000000000000e+00 0.000000000000000e+00 
9.375000000000000e-04 0.000000000000000e+00 0.000000000000000e+00 
9.375000000000000e-04 0.000000000000000e+00 0.000000000000000e+00 
9.687500000000000e-04 0.000000000000000e+00 0.000000000000000e+00 
9.687500000000000e-04 0.000000000000000e+00 0.000000000000000e+00 
1.000000000000000e-03 0.000000000000000e+00 0.000000000000000e+00 
    </DataArray>
  </Points>

  <Cells>
    <DataArray type="Int32" Name="connectivity" format="ascii">
0 1 2 3 4 5 6 7 8 9 10 11 12 13 14 15 16 17 18 19 20 21 22 23 24 25 26 27 28 29 30 31 32 33 34 35 36 37 38 39 40 41 42 43 44 45 46 47 48 49 50 51 52 53 54 55 56 57 58 59 60 61 62 63     </DataArray>
    <DataArray type="Int32" Name="offsets" format="ascii">
2 4 6 8 10 12 14 16 18 20 22 24 26 28 30 32 34 36 38 40 42 44 46 48 50 52 54 56 58 60 62 64     </DataArray>
    <DataArray type="UInt8" Name="types" format="ascii">
3 3 3 3 3 3 3 3 3 3 3 3 3 3 3 3 3 3 3 3 3 3 3 3 3 3 3 3 3 3 3 3     </DataArray>
  </Cells>

  <PointData>
    <DataArray type="Float64" Name="phi_1" format="ascii">
9.594329360625437e+03 
9.596325348764709e+03 
9.596325348764709e+03 
9.602308507401243e+03 
9.602308507401243e+03 
9.612264430726404e+03 
9.612264430726404e+03 
9.626169147487297e+03 
9.626169147487297e+03 
9.643989178531157e+03 
9.643989178531157e+03 
9.665681617184888e+03 
9.665681617184888e+03 
9.691194232270836e+03 
9.691194232270836e+03 
9.720465593529414e+03 
9.720465593529414e+03 
9.753425219142711e+03 
9.753425219142711e+03 
9.789993745024462e+03 
9.789993745024462e+03 
9.830083115466119e+03 
9.830083115466119e+03 
9.873596794701485e+03 
9.873596794701485e+03 
9.920429998879561e+03 
9.920429998879561e+03 
9.970469947906204e+03 
9.970469947906204e+03 
1.002359613655058e+04 
1.002359613655058e+04 
1.007968062417806e+04 
1.007968062417806e+04 
1.013858834241529e+04 
1.013858834241529e+04 
1.020017742001958e+04 
1.020017742001958e+04 
1.026429952416651e+04 
1.026429952416651e+04 
1.033080021737259e+04 
1.033080021737259e+04 
1.039951932907418e+04 
1.039951932907418e+04 
1.047029134143900e+04 
1.047029134143900e+04 
1.054294578672108e+04 
1.054294578672108e+04 
1.061730766181673e+04 
1.061730766181673e+04 
1.069319783424590e+04 
1.069319783424590e+04 
1.077043353137688e+04 
1.077043353137688e+04 
1.084882856417141e+04 
1.084882856417141e+04 
1.092819458660499e+04 
1.092819458660499e+04 
1.100833851213044e+04 
1.100833851213044e+04 
1.108907435574499e+04 
1.108907435574499e+04 
1.117018106765303e+04 
1.117018106765303e+04 
1.125156268823250e+04 
    </DataArray>
    <DataArray type="Float64" Name="phiAnalytic_1" format="ascii">
9.724063933054033e+03 
9.725903872117815e+03 
9.725903872117815e+03 
9.731419256736599e+03 
9.731419256736599e+03 
9.740596799871122e+03 
9.740596799871122e+03 
9.753414392024950e+03 
9.753414392024950e+03 
9.769841154507983e+03 
9.769841154507983e+03 
9.789837513825682e+03 
9.789837513825682e+03 
9.813355297014743e+03 
9.813355297014743e+03 
9.840337847695610e+03 
9.840337847695610e+03 
9.870720162562217e+03 
9.870720162562217e+03 
9.904429047980164e+03 
9.904429047980164e+03 
9.941383296316106e+03 
9.941383296316106e+03 
9.981493881573517e+03 
9.981493881573517e+03 
1.002466417386359e+04 
1.002466417386359e+04 
1.007079017219457e+04 
1.007079017219457e+04 
1.011976075501876e+04 
1.011976075501876e+04 
1.017145794793353e+04 
1.017145794793353e+04 
1.022575720789159e+04 
1.022575720789159e+04 
1.028252772323568e+04 
1.028252772323568e+04 
1.034163272883495e+04 
1.034163272883495e+04 
1.040292983556386e+04 
1.040292983556386e+04 
1.046627137332986e+04 
1.046627137332986e+04 
1.053150474682341e+04 
1.053150474682341e+04 
1.059847280313339e+04 
1.059847280313339e+04 
1.066701421034224e+04 
1.066701421034224e+04 
1.073696384618879e+04 
1.073696384618879e+04 
1.080815319586238e+04 
1.080815319586238e+04 
1.088041075797009e+04 
1.088041075797009e+04 
1.095356245769884e+04 
1.095356245769884e+04 
1.102743206617734e+04 
1.102743206617734e+04 
1.110184162502718e+04 
1.110184162502718e+04 
1.117661187508071e+04 
1.117661187508071e+04 
1.125156268823250e+04 
    </DataArray>
    <DataArray type="Float64" Name="phi_2" format="ascii">
-1.753949621293730e+05 
-1.753944464579067e+05 
-1.753944464579067e+05 
-1.753929013278859e+05 
-1.753929013278859e+05 
-1.753903323790692e+05 
-1.753903323790692e+05 
-1.753867489666625e+05 
-1.753867489666625e+05 
-1.753821640954186e+05 
-1.753821640954186e+05 
-1.753765943287326e+05 
-1.753765943287326e+05 
-1.753700596740473e+05 
-1.753700596740473e+05 
-1.753625834462023e+05 
-1.753625834462023e+05 
-1.753541921106389e+05 
-1.753541921106389e+05 
-1.753449151086084e+05 
-1.753449151086084e+05 
-1.753347846667122e+05 
-1.753347846667122e+05 
-1.753238355932381e+05 
-1.753238355932381e+05 
-1.753121050638352e+05 
-1.753121050638352e+05 
-1.752996323990973e+05 
-1.752996323990973e+05 
-1.752864588366059e+05 
-1.752864588366059e+05 
-1.752726272999151e+05 
-1.752726272999151e+05 
-1.752581821668537e+05 
-1.752581821668537e+05 
-1.752431690393786e+05 
-1.752431690393786e+05 
-1.752276345170379e+05 
-1.752276345170379e+05 
-1.752116259759115e+05 
-1.752116259759115e+05 
-1.751951913546818e+05 
-1.751951913546818e+05 
-1.751783789492673e+05 
-1.751783789492673e+05 
-1.751612372172229e+05 
-1.751612372172229e+05 
-1.751438145928918e+05 
-1.751438145928918e+05 
-1.751261593140535e+05 
-1.751261593140535e+05 
-1.751083192606633e+05 
-1.751083192606633e+05 
-1.750903418058650e+05 
-1.750903418058650e+05 
-1.750722736800694e+05 
-1.750722736800694e+05 
-1.750541608457566e+05 
-1.750541608457566e+05 
-1.750360483915954e+05 
-1.750360483915954e+05 
-1.750179804130752e+05 
-1.750179804130752e+05 
-1.750000000000000e+05 
    </DataArray>
    <DataArray type="Float64" Name="phiAnalytic_2" format="ascii">
-1.753616681183725e+05 
-1.753611991329065e+05 
-1.753611991329065e+05 
-1.753597938377369e+05 
-1.753597938377369e+05 
-1.753574572054302e+05 
-1.753574572054302e+05 
-1.753541974866875e+05 
-1.753541974866875e+05 
-1.753500261555173e+05 
-1.753500261555173e+05 
-1.753449578335355e+05 
-1.753449578335355e+05 
-1.753390101944250e+05 
-1.753390101944250e+05 
-1.753322038498337e+05 
-1.753322038498337e+05 
-1.753245622182177e+05 
-1.753245622182177e+05 
-1.753161113783221e+05 
-1.753161113783221e+05 
-1.753068799091452e+05 
-1.753068799091452e+05 
-1.752968987183465e+05 
-1.752968987183465e+05 
-1.752862008611289e+05 
-1.752862008611289e+05 
-1.752748213516636e+05 
-1.752748213516636e+05 
-1.752627969691183e+05 
-1.752627969691183e+05 
-1.752501660603135e+05 
-1.752501660603135e+05 
-1.752369683409556e+05 
-1.752369683409556e+05 
-1.752232446972992e+05 
-1.752232446972992e+05 
-1.752090369899630e+05 
-1.752090369899630e+05 
-1.751943878614811e+05 
-1.751943878614811e+05 
-1.751793405490120e+05 
-1.751793405490120e+05 
-1.751639387034575e+05 
-1.751639387034575e+05 
-1.751482262160689e+05 
-1.751482262160689e+05 
-1.751322470534407e+05 
-1.751322470534407e+05 
-1.751160451016154e+05 
-1.751160451016154e+05 
-1.750996640198558e+05 
-1.750996640198558e+05 
-1.750831471044759e+05 
-1.750831471044759e+05 
-1.750665371629715e+05 
-1.750665371629715e+05 
-1.750498763985515e+05 
-1.750498763985515e+05 
-1.750332063050434e+05 
-1.750332063050434e+05 
-1.750165675720328e+05 
-1.750165675720328e+05 
-1.750000000000000e+05 
    </DataArray>
  </PointData>
  <CellData>
    <DataArray type="Float64" Name="Owner" format="ascii">
0.000000000000000e+00 
0.000000000000000e+00 
0.000000000000000e+00 
0.000000000000000e+00 
0.000000000000000e+00 
0.000000000000000e+00 
0.000000000000000e+00 
0.000000000000000e+00 
0.000000000000000e+00 
0.000000000000000e+00 
0.000000000000000e+00 
0.000000000000000e+00 
0.000000000000000e+00 
0.000000000000000e+00 
0.000000000000000e+00 
0.000000000000000e+00 
0.000000000000000e+00 
0.000000000000000e+00 
0.000000000000000e+00 
0.000000000000000e+00 
0.000000000000000e+00 
0.000000000000000e+00 
0.000000000000000e+00 
0.000000000000000e+00 
0.000000000000000e+00 
0.000000000000000e+00 
0.000000000000000e+00 
0.000000000000000e+00 
0.000000000000000e+00 
0.000000000000000e+00 
0.000000000000000e+00 
0.000000000000000e+00 
0.000000000000000e+00 
0.000000000000000e+00 
0.000000000000000e+00 
0.000000000000000e+00 
0.000000000000000e+00 
0.000000000000000e+00 
0.000000000000000e+00 
0.000000000000000e+00 
0.000000000000000e+00 
0.000000000000000e+00 
0.000000000000000e+00 
0.000000000000000e+00 
0.000000000000000e+00 
0.000000000000000e+00 
0.000000000000000e+00 
0.000000000000000e+00 
0.000000000000000e+00 
0.000000000000000e+00 
0.000000000000000e+00 
0.000000000000000e+00 
0.000000000000000e+00 
0.000000000000000e+00 
0.000000000000000e+00 
0.000000000000000e+00 
0.000000000000000e+00 
0.000000000000000e+00 
0.000000000000000e+00 
0.000000000000000e+00 
0.000000000000000e+00 
0.000000000000000e+00 
0.000000000000000e+00 
0.000000000000000e+00 
    </DataArray>
  </CellData>
</Piece>
</UnstructuredGrid>
</VTKFile>
