<?xml version="1.0" ?> 
<!-- 
# vtk DataFile Version 3.0
-->
<VTKFile type="UnstructuredGrid" version="0.1" compressor="vtkZLibDataCompressor" byte_order="LittleEndian">
<UnstructuredGrid>
<FieldData>
<DataArray type="Float32" Name="TIME" NumberOfTuples="1" format="ascii">1004.4642857175</DataArray>
</FieldData>
<Piece NumberOfPoints="64" NumberOfCells="32" >
  <Points>
    <DataArray type="Float64" NumberOfComponents="3" format="ascii">
0.000000000000000e+00 0.000000000000000e+00 0.000000000000000e+00 
3.125000000000000e-05 0.000000000000000e+00 0.000000000000000e+00 
3.125000000000000e-05 0.000000000000000e+00 0.000000000000000e+00 
6.250000000000000e-05 0.000000000000000e+00 0.000000000000000e+00 
6.250000000000000e-05 0.000000000000000e+00 0.000000000000000e+00 
9.375000000000000e-05 0.000000000000000e+00 0.000000000000000e+00 
9.375000000000000e-05 0.000000000000000e+00 0.000000000000000e+00 
1.250000000000000e-04 0.000000000000000e+00 0.000000000000000e+00 
1.250000000000000e-04 0.000000000000000e+00 0.000000000000000e+00 
1.562500000000000e-04 0.000000000000000e+00 0.000000000000000e+00 
1.562500000000000e-04 0.000000000000000e+00 0.000000000000000e+00 
1.875000000000000e-04 0.000000000000000e+00 0.000000000000000e+00 
1.875000000000000e-04 0.000000000000000e+00 0.000000000000000e+00 
2.187500000000000e-04 0.000000000000000e+00 0.000000000000000e+00 
2.187500000000000e-04 0.000000000000000e+00 0.000000000000000e+00 
2.500000000000000e-04 0.000000000000000e+00 0.000000000000000e+00 
2.500000000000000e-04 0.000000000000000e+00 0.000000000000000e+00 
2.812500000000000e-04 0.000000000000000e+00 0.000000000000000e+00 
2.812500000000000e-04 0.000000000000000e+00 0.000000000000000e+00 
3.125000000000000e-04 0.000000000000000e+00 0.000000000000000e+00 
3.125000000000000e-04 0.000000000000000e+00 0.000000000000000e+00 
3.437500000000000e-04 0.000000000000000e+00 0.000000000000000e+00 
3.437500000000000e-04 0.000000000000000e+00 0.000000000000000e+00 
3.750000000000000e-04 0.000000000000000e+00 0.000000000000000e+00 
3.750000000000000e-04 0.000000000000000e+00 0.000000000000000e+00 
4.062500000000000e-04 0.000000000000000e+00 0.000000000000000e+00 
4.062500000000000e-04 0.000000000000000e+00 0.000000000000000e+00 
4.375000000000000e-04 0.000000000000000e+00 0.000000000000000e+00 
4.375000000000000e-04 0.000000000000000e+00 0.000000000000000e+00 
4.687500000000000e-04 0.000000000000000e+00 0.000000000000000e+00 
4.687500000000000e-04 0.000000000000000e+00 0.000000000000000e+00 
5.000000000000000e-04 0.000000000000000e+00 0.000000000000000e+00 
5.000000000000000e-04 0.000000000000000e+00 0.000000000000000e+00 
5.312500000000000e-04 0.000000000000000e+00 0.000000000000000e+00 
5.312500000000000e-04 0.000000000000000e+00 0.000000000000000e+00 
5.625000000000001e-04 0.000000000000000e+00 0.000000000000000e+00 
5.625000000000001e-04 0.000000000000000e+00 0.000000000000000e+00 
5.937500000000000e-04 0.000000000000000e+00 0.000000000000000e+00 
5.937500000000000e-04 0.000000000000000e+00 0.000000000000000e+00 
6.250000000000000e-04 0.000000000000000e+00 0.000000000000000e+00 
6.250000000000000e-04 0.000000000000000e+00 0.000000000000000e+00 
6.562500000000000e-04 0.000000000000000e+00 0.000000000000000e+00 
6.562500000000000e-04 0.000000000000000e+00 0.000000000000000e+00 
6.875000000000000e-04 0.000000000000000e+00 0.000000000000000e+00 
6.875000000000000e-04 0.000000000000000e+00 0.000000000000000e+00 
7.187500000000000e-04 0.000000000000000e+00 0.000000000000000e+00 
7.187500000000000e-04 0.000000000000000e+00 0.000000000000000e+00 
7.500000000000000e-04 0.000000000000000e+00 0.000000000000000e+00 
7.500000000000000e-04 0.000000000000000e+00 0.000000000000000e+00 
7.812500000000000e-04 0.000000000000000e+00 0.000000000000000e+00 
7.812500000000000e-04 0.000000000000000e+00 0.000000000000000e+00 
8.125000000000001e-04 0.000000000000000e+00 0.000000000000000e+00 
8.125000000000001e-04 0.000000000000000e+00 0.000000000000000e+00 
8.437500000000000e-04 0.000000000000000e+00 0.000000000000000e+00 
8.437500000000000e-04 0.000000000000000e+00 0.000000000000000e+00 
8.750000000000000e-04 0.000000000000000e+00 0.000000000000000e+00 
8.750000000000000e-04 0.000000000000000e+00 0.000000000000000e+00 
9.062500000000000e-04 0.000000000000000e+00 0.000000000000000e+00 
9.062500000000000e-04 0.000000000000000e+00 0.000000000000000e+00 
9.375000000000000e-04 0.000000000000000e+00 0.000000000000000e+00 
9.375000000000000e-04 0.000000000000000e+00 0.000000000000000e+00 
9.687500000000000e-04 0.000000000000000e+00 0.000000000000000e+00 
9.687500000000000e-04 0.000000000000000e+00 0.000000000000000e+00 
1.000000000000000e-03 0.000000000000000e+00 0.000000000000000e+00 
    </DataArray>
  </Points>

  <Cells>
    <DataArray type="Int32" Name="connectivity" format="ascii">
0 1 2 3 4 5 6 7 8 9 10 11 12 13 14 15 16 17 18 19 20 21 22 23 24 25 26 27 28 29 30 31 32 33 34 35 36 37 38 39 40 41 42 43 44 45 46 47 48 49 50 51 52 53 54 55 56 57 58 59 60 61 62 63     </DataArray>
    <DataArray type="Int32" Name="offsets" format="ascii">
2 4 6 8 10 12 14 16 18 20 22 24 26 28 30 32 34 36 38 40 42 44 46 48 50 52 54 56 58 60 62 64     </DataArray>
    <DataArray type="UInt8" Name="types" format="ascii">
3 3 3 3 3 3 3 3 3 3 3 3 3 3 3 3 3 3 3 3 3 3 3 3 3 3 3 3 3 3 3 3     </DataArray>
  </Cells>

  <PointData>
    <DataArray type="Float64" Name="phi_1" format="ascii">
9.328867435570955e+03 
9.331183083384696e+03 
9.331183083384696e+03 
9.338124452457972e+03 
9.338124452457972e+03 
9.349674833047713e+03 
9.349674833047713e+03 
9.365806420082972e+03 
9.365806420082972e+03 
9.386480379808832e+03 
9.386480379808832e+03 
9.411646942875173e+03 
9.411646942875173e+03 
9.441245523653102e+03 
9.441245523653102e+03 
9.475204865507307e+03 
9.475204865507307e+03 
9.513443211686099e+03 
9.513443211686099e+03 
9.555868501435965e+03 
9.555868501435965e+03 
9.602378590885153e+03 
9.602378590885153e+03 
9.652861498178507e+03 
9.652861498178507e+03 
9.707195672296930e+03 
9.707195672296930e+03 
9.765250284926016e+03 
9.765250284926016e+03 
9.826885544690409e+03 
9.826885544690409e+03 
9.891953033014122e+03 
9.891953033014122e+03 
9.960296060807463e+03 
9.960296060807463e+03 
1.003175004514114e+04 
1.003175004514114e+04 
1.010614290499876e+04 
1.010614290499876e+04 
1.018329547520456e+04 
1.018329547520456e+04 
1.026302193737443e+04 
1.026302193737443e+04 
1.034513026748145e+04 
1.034513026748145e+04 
1.042942269660289e+04 
1.042942269660289e+04 
1.051569619258916e+04 
1.051569619258916e+04 
1.060374292832598e+04 
1.060374292832598e+04 
1.069335085975611e+04 
1.069335085975611e+04 
1.078430394644877e+04 
1.078430394644877e+04 
1.087638375994573e+04 
1.087638375994573e+04 
1.096936593309414e+04 
1.096936593309414e+04 
1.106303598141167e+04 
1.106303598141167e+04 
1.115713254840338e+04 
1.115713254840338e+04 
1.125156268823250e+04 
    </DataArray>
    <DataArray type="Float64" Name="phiAnalytic_1" format="ascii">
9.469370537233526e+03 
9.471517265396158e+03 
9.471517265396158e+03 
9.477952278235109e+03 
9.477952278235109e+03 
9.488660073262343e+03 
9.488660073262343e+03 
9.503614854497129e+03 
9.503614854497129e+03 
9.522780594610040e+03 
9.522780594610040e+03 
9.546111121714888e+03 
9.546111121714888e+03 
9.573550230599560e+03 
9.573550230599560e+03 
9.605031818127736e+03 
9.605031818127736e+03 
9.640480042485404e+03 
9.640480042485404e+03 
9.679809505888512e+03 
9.679809505888512e+03 
9.722925460311722e+03 
9.722925460311722e+03 
9.769724035742585e+03 
9.769724035742585e+03 
9.820092490411367e+03 
9.820092490411367e+03 
9.873909482393759e+03 
9.873909482393759e+03 
9.931045361932116e+03 
9.931045361932116e+03 
9.991362483771170e+03 
9.991362483771170e+03 
1.005471553875569e+04 
1.005471553875569e+04 
1.012095190389133e+04 
1.012095190389133e+04 
1.018991201002547e+04 
1.018991201002547e+04 
1.026142972626206e+04 
1.026142972626206e+04 
1.033533276018469e+04 
1.033533276018469e+04 
1.041144307292354e+04 
1.041144307292354e+04 
1.048957730806633e+04 
1.048957730806633e+04 
1.056954723338004e+04 
1.056954723338004e+04 
1.065116019427923e+04 
1.065116019427923e+04 
1.073421957794844e+04 
1.073421957794844e+04 
1.081852528700066e+04 
1.081852528700066e+04 
1.090387422153071e+04 
1.090387422153071e+04 
1.099006076840213e+04 
1.099006076840213e+04 
1.107687729658893e+04 
1.107687729658893e+04 
1.116411465737877e+04 
1.116411465737877e+04 
1.125156268823250e+04 
    </DataArray>
    <DataArray type="Float64" Name="phi_2" format="ascii">
-1.754645143599193e+05 
-1.754638990832544e+05 
-1.754638990832544e+05 
-1.754620556494136e+05 
-1.754620556494136e+05 
-1.754589912277805e+05 
-1.754589912277805e+05 
-1.754547177040530e+05 
-1.754547177040530e+05 
-1.754492515864335e+05 
-1.754492515864335e+05 
-1.754426138764718e+05 
-1.754426138764718e+05 
-1.754348299066595e+05 
-1.754348299066595e+05 
-1.754259291473764e+05 
-1.754259291473764e+05 
-1.754159449862151e+05 
-1.754159449862151e+05 
-1.754049144830587e+05 
-1.754049144830587e+05 
-1.753928781045454e+05 
-1.753928781045454e+05 
-1.753798794417295e+05 
-1.753798794417295e+05 
-1.753659649148264e+05 
-1.753659649148264e+05 
-1.753511834689304e+05 
-1.753511834689304e+05 
-1.753355862645062e+05 
-1.753355862645062e+05 
-1.753192263663021e+05 
-1.753192263663021e+05 
-1.753021584341130e+05 
-1.753021584341130e+05 
-1.752844384185526e+05 
-1.752844384185526e+05 
-1.752661232646799e+05 
-1.752661232646799e+05 
-1.752472706259917e+05 
-1.752472706259917e+05 
-1.752279385909284e+05 
-1.752279385909284e+05 
-1.752081854236830e+05 
-1.752081854236830e+05 
-1.751880693207359e+05 
-1.751880693207359e+05 
-1.751676481841934e+05 
-1.751676481841934e+05 
-1.751469794126529e+05 
-1.751469794126529e+05 
-1.751261197100913e+05 
-1.751261197100913e+05 
-1.751051249126606e+05 
-1.751051249126606e+05 
-1.750840498342691e+05 
-1.750840498342691e+05 
-1.750629481269272e+05 
-1.750629481269272e+05 
-1.750418721690814e+05 
-1.750418721690814e+05 
-1.750208729302030e+05 
-1.750208729302030e+05 
-1.750000000000000e+05 
    </DataArray>
    <DataArray type="Float64" Name="phiAnalytic_2" format="ascii">
-1.754274589403518e+05 
-1.754268970500276e+05 
-1.754268970500276e+05 
-1.754252134954236e+05 
-1.754252134954236e+05 
-1.754224146097648e+05 
-1.754224146097648e+05 
-1.754185108957376e+05 
-1.754185108957376e+05 
-1.754135169473196e+05 
-1.754135169473196e+05 
-1.754074513420482e+05 
-1.754074513420482e+05 
-1.754003365053748e+05 
-1.754003365053748e+05 
-1.753921985491531e+05 
-1.753921985491531e+05 
-1.753830670866486e+05 
-1.753830670866486e+05 
-1.753729750267448e+05 
-1.753729750267448e+05 
-1.753619583502356e+05 
-1.753619583502356e+05 
-1.753500558712484e+05 
-1.753500558712484e+05 
-1.753373089869235e+05 
-1.753373089869235e+05 
-1.753237614184939e+05 
-1.753237614184939e+05 
-1.753094589468621e+05 
-1.753094589468621e+05 
-1.752944491456704e+05 
-1.752944491456704e+05 
-1.752787811147065e+05 
-1.752787811147065e+05 
-1.752625052162903e+05 
-1.752625052162903e+05 
-1.752456728170587e+05 
-1.752456728170587e+05 
-1.752283360373085e+05 
-1.752283360373085e+05 
-1.752105475097838e+05 
-1.752105475097838e+05 
-1.751923601495112e+05 
-1.751923601495112e+05 
-1.751738269359997e+05 
-1.751738269359997e+05 
-1.751550007088450e+05 
-1.751550007088450e+05 
-1.751359339775016e+05 
-1.751359339775016e+05 
-1.751166787457357e+05 
-1.751166787457357e+05 
-1.750972863510324e+05 
-1.750972863510324e+05 
-1.750778073190138e+05 
-1.750778073190138e+05 
-1.750582912327358e+05 
-1.750582912327358e+05 
-1.750387866165577e+05 
-1.750387866165577e+05 
-1.750193408341398e+05 
-1.750193408341398e+05 
-1.750000000000000e+05 
    </DataArray>
  </PointData>
  <CellData>
    <DataArray type="Float64" Name="Owner" format="ascii">
0.000000000000000e+00 
0.000000000000000e+00 
0.000000000000000e+00 
0.000000000000000e+00 
0.000000000000000e+00 
0.000000000000000e+00 
0.000000000000000e+00 
0.000000000000000e+00 
0.000000000000000e+00 
0.000000000000000e+00 
0.000000000000000e+00 
0.000000000000000e+00 
0.000000000000000e+00 
0.000000000000000e+00 
0.000000000000000e+00 
0.000000000000000e+00 
0.000000000000000e+00 
0.000000000000000e+00 
0.000000000000000e+00 
0.000000000000000e+00 
0.000000000000000e+00 
0.000000000000000e+00 
0.000000000000000e+00 
0.000000000000000e+00 
0.000000000000000e+00 
0.000000000000000e+00 
0.000000000000000e+00 
0.000000000000000e+00 
0.000000000000000e+00 
0.000000000000000e+00 
0.000000000000000e+00 
0.000000000000000e+00 
0.000000000000000e+00 
0.000000000000000e+00 
0.000000000000000e+00 
0.000000000000000e+00 
0.000000000000000e+00 
0.000000000000000e+00 
0.000000000000000e+00 
0.000000000000000e+00 
0.000000000000000e+00 
0.000000000000000e+00 
0.000000000000000e+00 
0.000000000000000e+00 
0.000000000000000e+00 
0.000000000000000e+00 
0.000000000000000e+00 
0.000000000000000e+00 
0.000000000000000e+00 
0.000000000000000e+00 
0.000000000000000e+00 
0.000000000000000e+00 
0.000000000000000e+00 
0.000000000000000e+00 
0.000000000000000e+00 
0.000000000000000e+00 
0.000000000000000e+00 
0.000000000000000e+00 
0.000000000000000e+00 
0.000000000000000e+00 
0.000000000000000e+00 
0.000000000000000e+00 
0.000000000000000e+00 
0.000000000000000e+00 
    </DataArray>
  </CellData>
</Piece>
</UnstructuredGrid>
</VTKFile>
