<?xml version="1.0" ?> 
<!-- 
# vtk DataFile Version 3.0
-->
<VTKFile type="UnstructuredGrid" version="0.1" compressor="vtkZLibDataCompressor" byte_order="LittleEndian">
<UnstructuredGrid>
<FieldData>
<DataArray type="Float32" Name="TIME" NumberOfTuples="1" format="ascii">409.2261904775</DataArray>
</FieldData>
<Piece NumberOfPoints="64" NumberOfCells="32" >
  <Points>
    <DataArray type="Float64" NumberOfComponents="3" format="ascii">
0.000000000000000e+00 0.000000000000000e+00 0.000000000000000e+00 
3.125000000000000e-05 0.000000000000000e+00 0.000000000000000e+00 
3.125000000000000e-05 0.000000000000000e+00 0.000000000000000e+00 
6.250000000000000e-05 0.000000000000000e+00 0.000000000000000e+00 
6.250000000000000e-05 0.000000000000000e+00 0.000000000000000e+00 
9.375000000000000e-05 0.000000000000000e+00 0.000000000000000e+00 
9.375000000000000e-05 0.000000000000000e+00 0.000000000000000e+00 
1.250000000000000e-04 0.000000000000000e+00 0.000000000000000e+00 
1.250000000000000e-04 0.000000000000000e+00 0.000000000000000e+00 
1.562500000000000e-04 0.000000000000000e+00 0.000000000000000e+00 
1.562500000000000e-04 0.000000000000000e+00 0.000000000000000e+00 
1.875000000000000e-04 0.000000000000000e+00 0.000000000000000e+00 
1.875000000000000e-04 0.000000000000000e+00 0.000000000000000e+00 
2.187500000000000e-04 0.000000000000000e+00 0.000000000000000e+00 
2.187500000000000e-04 0.000000000000000e+00 0.000000000000000e+00 
2.500000000000000e-04 0.000000000000000e+00 0.000000000000000e+00 
2.500000000000000e-04 0.000000000000000e+00 0.000000000000000e+00 
2.812500000000000e-04 0.000000000000000e+00 0.000000000000000e+00 
2.812500000000000e-04 0.000000000000000e+00 0.000000000000000e+00 
3.125000000000000e-04 0.000000000000000e+00 0.000000000000000e+00 
3.125000000000000e-04 0.000000000000000e+00 0.000000000000000e+00 
3.437500000000000e-04 0.000000000000000e+00 0.000000000000000e+00 
3.437500000000000e-04 0.000000000000000e+00 0.000000000000000e+00 
3.750000000000000e-04 0.000000000000000e+00 0.000000000000000e+00 
3.750000000000000e-04 0.000000000000000e+00 0.000000000000000e+00 
4.062500000000000e-04 0.000000000000000e+00 0.000000000000000e+00 
4.062500000000000e-04 0.000000000000000e+00 0.000000000000000e+00 
4.375000000000000e-04 0.000000000000000e+00 0.000000000000000e+00 
4.375000000000000e-04 0.000000000000000e+00 0.000000000000000e+00 
4.687500000000000e-04 0.000000000000000e+00 0.000000000000000e+00 
4.687500000000000e-04 0.000000000000000e+00 0.000000000000000e+00 
5.000000000000000e-04 0.000000000000000e+00 0.000000000000000e+00 
5.000000000000000e-04 0.000000000000000e+00 0.000000000000000e+00 
5.312500000000000e-04 0.000000000000000e+00 0.000000000000000e+00 
5.312500000000000e-04 0.000000000000000e+00 0.000000000000000e+00 
5.625000000000001e-04 0.000000000000000e+00 0.000000000000000e+00 
5.625000000000001e-04 0.000000000000000e+00 0.000000000000000e+00 
5.937500000000000e-04 0.000000000000000e+00 0.000000000000000e+00 
5.937500000000000e-04 0.000000000000000e+00 0.000000000000000e+00 
6.250000000000000e-04 0.000000000000000e+00 0.000000000000000e+00 
6.250000000000000e-04 0.000000000000000e+00 0.000000000000000e+00 
6.562500000000000e-04 0.000000000000000e+00 0.000000000000000e+00 
6.562500000000000e-04 0.000000000000000e+00 0.000000000000000e+00 
6.875000000000000e-04 0.000000000000000e+00 0.000000000000000e+00 
6.875000000000000e-04 0.000000000000000e+00 0.000000000000000e+00 
7.187500000000000e-04 0.000000000000000e+00 0.000000000000000e+00 
7.187500000000000e-04 0.000000000000000e+00 0.000000000000000e+00 
7.500000000000000e-04 0.000000000000000e+00 0.000000000000000e+00 
7.500000000000000e-04 0.000000000000000e+00 0.000000000000000e+00 
7.812500000000000e-04 0.000000000000000e+00 0.000000000000000e+00 
7.812500000000000e-04 0.000000000000000e+00 0.000000000000000e+00 
8.125000000000001e-04 0.000000000000000e+00 0.000000000000000e+00 
8.125000000000001e-04 0.000000000000000e+00 0.000000000000000e+00 
8.437500000000000e-04 0.000000000000000e+00 0.000000000000000e+00 
8.437500000000000e-04 0.000000000000000e+00 0.000000000000000e+00 
8.750000000000000e-04 0.000000000000000e+00 0.000000000000000e+00 
8.750000000000000e-04 0.000000000000000e+00 0.000000000000000e+00 
9.062500000000000e-04 0.000000000000000e+00 0.000000000000000e+00 
9.062500000000000e-04 0.000000000000000e+00 0.000000000000000e+00 
9.375000000000000e-04 0.000000000000000e+00 0.000000000000000e+00 
9.375000000000000e-04 0.000000000000000e+00 0.000000000000000e+00 
9.687500000000000e-04 0.000000000000000e+00 0.000000000000000e+00 
9.687500000000000e-04 0.000000000000000e+00 0.000000000000000e+00 
1.000000000000000e-03 0.000000000000000e+00 0.000000000000000e+00 
    </DataArray>
  </Points>

  <Cells>
    <DataArray type="Int32" Name="connectivity" format="ascii">
0 1 2 3 4 5 6 7 8 9 10 11 12 13 14 15 16 17 18 19 20 21 22 23 24 25 26 27 28 29 30 31 32 33 34 35 36 37 38 39 40 41 42 43 44 45 46 47 48 49 50 51 52 53 54 55 56 57 58 59 60 61 62 63     </DataArray>
    <DataArray type="Int32" Name="offsets" format="ascii">
2 4 6 8 10 12 14 16 18 20 22 24 26 28 30 32 34 36 38 40 42 44 46 48 50 52 54 56 58 60 62 64     </DataArray>
    <DataArray type="UInt8" Name="types" format="ascii">
3 3 3 3 3 3 3 3 3 3 3 3 3 3 3 3 3 3 3 3 3 3 3 3 3 3 3 3 3 3 3 3     </DataArray>
  </Cells>

  <PointData>
    <DataArray type="Float64" Name="phi_1" format="ascii">
4.954909908395683e+03 
4.962351755766756e+03 
4.962351755766756e+03 
4.984662444352260e+03 
4.984662444352260e+03 
5.021797381173567e+03 
5.021797381173567e+03 
5.073682138457509e+03 
5.073682138457509e+03 
5.140212300770967e+03 
5.140212300770967e+03 
5.221253263379442e+03 
5.221253263379442e+03 
5.316639993474510e+03 
5.316639993474510e+03 
5.426176768325232e+03 
5.426176768325232e+03 
5.549636906291846e+03 
5.549636906291846e+03 
5.686762508012805e+03 
5.686762508012805e+03 
5.837264225991508e+03 
5.837264225991508e+03 
6.000821081306297e+03 
6.000821081306297e+03 
6.177080346320628e+03 
6.177080346320628e+03 
6.365657512080194e+03 
6.365657512080194e+03 
6.566136358604020e+03 
6.566136358604020e+03 
6.778069145477620e+03 
6.778069145477620e+03 
7.000976939040151e+03 
7.000976939040151e+03 
7.234350091053961e+03 
7.234350091053961e+03 
7.477648881836923e+03 
7.477648881836923e+03 
7.730304339262492e+03 
7.730304339262492e+03 
7.991719240619317e+03 
7.991719240619317e+03 
8.261269309183388e+03 
8.261269309183388e+03 
8.538304585696342e+03 
8.538304585696342e+03 
8.822151060730925e+03 
8.822151060730925e+03 
9.112112237282116e+03 
9.112112237282116e+03 
9.407471858086094e+03 
9.407471858086094e+03 
9.707493078365316e+03 
9.707493078365316e+03 
1.001143193170607e+04 
1.001143193170607e+04 
1.031849734548079e+04 
1.031849734548079e+04 
1.062801443037197e+04 
1.062801443037197e+04 
1.093881804230688e+04 
1.093881804230688e+04 
1.125156268823250e+04 
    </DataArray>
    <DataArray type="Float64" Name="phiAnalytic_1" format="ascii">
5.133974605002105e+03 
5.141321330514280e+03 
5.141321330514280e+03 
5.163344288214144e+03 
5.163344288214144e+03 
5.199991852681514e+03 
5.199991852681514e+03 
5.251178085332002e+03 
5.251178085332002e+03 
5.316782890610885e+03 
5.316782890610885e+03 
5.396652235685649e+03 
5.396652235685649e+03 
5.490598434615196e+03 
5.490598434615196e+03 
5.598400498192363e+03 
5.598400498192363e+03 
5.719804550831619e+03 
5.719804550831619e+03 
5.854524315997661e+03 
5.854524315997661e+03 
6.002241671736801e+03 
6.002241671736801e+03 
6.162607277876426e+03 
6.162607277876426e+03 
6.335241276394355e+03 
6.335241276394355e+03 
6.519734066327897e+03 
6.519734066327897e+03 
6.715647154390686e+03 
6.715647154390686e+03 
6.922514082195267e+03 
6.922514082195267e+03 
7.139841430643343e+03 
7.139841430643343e+03 
7.367109901647533e+03 
7.367109901647533e+03 
7.603775476894272e+03 
7.603775476894272e+03 
7.849270652853777e+03 
7.849270652853777e+03 
8.103005750697827e+03 
8.103005750697827e+03 
8.364370299209053e+03 
8.364370299209053e+03 
8.632734488165801e+03 
8.632734488165801e+03 
8.907450689075662e+03 
8.907450689075662e+03 
9.187855039519181e+03 
9.187855039519181e+03 
9.473269086764061e+03 
9.473269086764061e+03 
9.763001485731222e+03 
9.763001485731222e+03 
1.005634974584717e+04 
1.005634974584717e+04 
1.035260202081361e+04 
1.035260202081361e+04 
1.065103893487403e+04 
1.065103893487403e+04 
1.095093543876673e+04 
1.095093543876673e+04 
1.125156268823250e+04 
    </DataArray>
    <DataArray type="Float64" Name="phi_2" format="ascii">
-1.770329492021789e+05 
-1.770292271623974e+05 
-1.770292271623974e+05 
-1.770181018931450e+05 
-1.770181018931450e+05 
-1.769996946344804e+05 
-1.769996946344804e+05 
-1.769742031740420e+05 
-1.769742031740420e+05 
-1.769418957272057e+05 
-1.769418957272057e+05 
-1.769031029324137e+05 
-1.769031029324137e+05 
-1.768582084500256e+05 
-1.768582084500256e+05 
-1.768076386996504e+05 
-1.768076386996504e+05 
-1.767518522686719e+05 
-1.767518522686719e+05 
-1.766913294801007e+05 
-1.766913294801007e+05 
-1.766265625317845e+05 
-1.766265625317845e+05 
-1.765580465241349e+05 
-1.765580465241349e+05 
-1.764862715923465e+05 
-1.764862715923465e+05 
-1.764117162620942e+05 
-1.764117162620942e+05 
-1.763348420625043e+05 
-1.763348420625043e+05 
-1.762560893612908e+05 
-1.762560893612908e+05 
-1.761758743359701e+05 
-1.761758743359701e+05 
-1.760945869614451e+05 
-1.760945869614451e+05 
-1.760125898759424e+05 
-1.760125898759424e+05 
-1.759302179814401e+05 
-1.759302179814401e+05 
-1.758477786382521e+05 
-1.758477786382521e+05 
-1.757655523234612e+05 
-1.757655523234612e+05 
-1.756837936367365e+05 
-1.756837936367365e+05 
-1.756027325532277e+05 
-1.756027325532277e+05 
-1.755225758383101e+05 
-1.755225758383101e+05 
-1.754435085586934e+05 
-1.754435085586934e+05 
-1.753656956235089e+05 
-1.753656956235089e+05 
-1.752892833563816e+05 
-1.752892833563816e+05 
-1.752144009121580e+05 
-1.752144009121580e+05 
-1.751411620752371e+05 
-1.751411620752371e+05 
-1.750696654123500e+05 
-1.750696654123500e+05 
-1.750000000000000e+05 
    </DataArray>
    <DataArray type="Float64" Name="phiAnalytic_2" format="ascii">
-1.769449481178923e+05 
-1.769414034595701e+05 
-1.769414034595701e+05 
-1.769308080626265e+05 
-1.769308080626265e+05 
-1.769132764376349e+05 
-1.769132764376349e+05 
-1.768889954382021e+05 
-1.768889954382021e+05 
-1.768582185392635e+05 
-1.768582185392635e+05 
-1.768212583442054e+05 
-1.768212583442054e+05 
-1.767784777709369e+05 
-1.767784777709369e+05 
-1.767302804116391e+05 
-1.767302804116391e+05 
-1.766771005610098e+05 
-1.766771005610098e+05 
-1.766193933690055e+05 
-1.766193933690055e+05 
-1.765576255059034e+05 
-1.765576255059034e+05 
-1.764922666413795e+05 
-1.764922666413795e+05 
-1.764237819465011e+05 
-1.764237819465011e+05 
-1.763526257377278e+05 
-1.763526257377278e+05 
-1.762792363023126e+05 
-1.762792363023126e+05 
-1.762040318792502e+05 
-1.762040318792502e+05 
-1.761274077208863e+05 
-1.761274077208863e+05 
-1.760497341272084e+05 
-1.760497341272084e+05 
-1.759713553259850e+05 
-1.759713553259850e+05 
-1.758925890648371e+05 
-1.758925890648371e+05 
-1.758137267832397e+05 
-1.758137267832397e+05 
-1.757350342407039e+05 
-1.757350342407039e+05 
-1.756567524896290e+05 
-1.756567524896290e+05 
-1.755790990956265e+05 
-1.755790990956265e+05 
-1.755022695230541e+05 
-1.755022695230541e+05 
-1.754264386180138e+05 
-1.754264386180138e+05 
-1.753517621345150e+05 
-1.753517621345150e+05 
-1.752783782614809e+05 
-1.752783782614809e+05 
-1.752064091186408e+05 
-1.752064091186408e+05 
-1.751359621980743e+05 
-1.751359621980743e+05 
-1.750671317353526e+05 
-1.750671317353526e+05 
-1.750000000000000e+05 
    </DataArray>
  </PointData>
  <CellData>
    <DataArray type="Float64" Name="Owner" format="ascii">
0.000000000000000e+00 
0.000000000000000e+00 
0.000000000000000e+00 
0.000000000000000e+00 
0.000000000000000e+00 
0.000000000000000e+00 
0.000000000000000e+00 
0.000000000000000e+00 
0.000000000000000e+00 
0.000000000000000e+00 
0.000000000000000e+00 
0.000000000000000e+00 
0.000000000000000e+00 
0.000000000000000e+00 
0.000000000000000e+00 
0.000000000000000e+00 
0.000000000000000e+00 
0.000000000000000e+00 
0.000000000000000e+00 
0.000000000000000e+00 
0.000000000000000e+00 
0.000000000000000e+00 
0.000000000000000e+00 
0.000000000000000e+00 
0.000000000000000e+00 
0.000000000000000e+00 
0.000000000000000e+00 
0.000000000000000e+00 
0.000000000000000e+00 
0.000000000000000e+00 
0.000000000000000e+00 
0.000000000000000e+00 
0.000000000000000e+00 
0.000000000000000e+00 
0.000000000000000e+00 
0.000000000000000e+00 
0.000000000000000e+00 
0.000000000000000e+00 
0.000000000000000e+00 
0.000000000000000e+00 
0.000000000000000e+00 
0.000000000000000e+00 
0.000000000000000e+00 
0.000000000000000e+00 
0.000000000000000e+00 
0.000000000000000e+00 
0.000000000000000e+00 
0.000000000000000e+00 
0.000000000000000e+00 
0.000000000000000e+00 
0.000000000000000e+00 
0.000000000000000e+00 
0.000000000000000e+00 
0.000000000000000e+00 
0.000000000000000e+00 
0.000000000000000e+00 
0.000000000000000e+00 
0.000000000000000e+00 
0.000000000000000e+00 
0.000000000000000e+00 
0.000000000000000e+00 
0.000000000000000e+00 
0.000000000000000e+00 
0.000000000000000e+00 
    </DataArray>
  </CellData>
</Piece>
</UnstructuredGrid>
</VTKFile>
