<?xml version="1.0" ?> 
<!-- 
# vtk DataFile Version 3.0
-->
<VTKFile type="UnstructuredGrid" version="0.1" compressor="vtkZLibDataCompressor" byte_order="LittleEndian">
<UnstructuredGrid>
<FieldData>
<DataArray type="Float32" Name="TIME" NumberOfTuples="1" format="ascii">558.0357142875</DataArray>
</FieldData>
<Piece NumberOfPoints="20" NumberOfCells="10" >
  <Points>
    <DataArray type="Float64" NumberOfComponents="3" format="ascii">
0.000000000000000e+00 0.000000000000000e+00 0.000000000000000e+00 
1.000000000000000e-04 0.000000000000000e+00 0.000000000000000e+00 
1.000000000000000e-04 0.000000000000000e+00 0.000000000000000e+00 
2.000000000000000e-04 0.000000000000000e+00 0.000000000000000e+00 
2.000000000000000e-04 0.000000000000000e+00 0.000000000000000e+00 
3.000000000000000e-04 0.000000000000000e+00 0.000000000000000e+00 
3.000000000000000e-04 0.000000000000000e+00 0.000000000000000e+00 
4.000000000000000e-04 0.000000000000000e+00 0.000000000000000e+00 
4.000000000000000e-04 0.000000000000000e+00 0.000000000000000e+00 
5.000000000000000e-04 0.000000000000000e+00 0.000000000000000e+00 
5.000000000000000e-04 0.000000000000000e+00 0.000000000000000e+00 
6.000000000000001e-04 0.000000000000000e+00 0.000000000000000e+00 
6.000000000000001e-04 0.000000000000000e+00 0.000000000000000e+00 
7.000000000000000e-04 0.000000000000000e+00 0.000000000000000e+00 
7.000000000000000e-04 0.000000000000000e+00 0.000000000000000e+00 
8.000000000000000e-04 0.000000000000000e+00 0.000000000000000e+00 
8.000000000000000e-04 0.000000000000000e+00 0.000000000000000e+00 
9.000000000000001e-04 0.000000000000000e+00 0.000000000000000e+00 
9.000000000000001e-04 0.000000000000000e+00 0.000000000000000e+00 
1.000000000000000e-03 0.000000000000000e+00 0.000000000000000e+00 
    </DataArray>
  </Points>

  <Cells>
    <DataArray type="Int32" Name="connectivity" format="ascii">
0 1 2 3 4 5 6 7 8 9 10 11 12 13 14 15 16 17 18 19     </DataArray>
    <DataArray type="Int32" Name="offsets" format="ascii">
2 4 6 8 10 12 14 16 18 20     </DataArray>
    <DataArray type="UInt8" Name="types" format="ascii">
3 3 3 3 3 3 3 3 3 3     </DataArray>
  </Cells>

  <PointData>
    <DataArray type="Float64" Name="phi_1" format="ascii">
6.581545022558973e+03 
6.638642718336172e+03 
6.638642718336172e+03 
6.808606614661658e+03 
6.808606614661658e+03 
7.087461150941569e+03 
7.087461150941569e+03 
7.468635084003470e+03 
7.468635084003470e+03 
7.943043567714666e+03 
7.943043567714666e+03 
8.499306488438644e+03 
8.499306488438644e+03 
9.123771427294447e+03 
9.123771427294447e+03 
9.801653275542418e+03 
9.801653275542418e+03 
1.051420898545315e+04 
1.051420898545315e+04 
1.125156268823250e+04 
    </DataArray>
    <DataArray type="Float64" Name="phiAnalytic_1" format="ascii">
6.756014414786769e+03 
6.811348187236605e+03 
6.811348187236605e+03 
6.975990030592201e+03 
6.975990030592201e+03 
7.245894337759448e+03 
7.245894337759448e+03 
7.614427149039381e+03 
7.614427149039381e+03 
8.072526890726454e+03 
8.072526890726454e+03 
8.608924683166289e+03 
8.608924683166289e+03 
9.210419407835891e+03 
9.210419407835891e+03 
9.862201285760269e+03 
9.862201285760269e+03 
1.054821632164311e+04 
1.054821632164311e+04 
1.125156268823250e+04 
    </DataArray>
    <DataArray type="Float64" Name="phi_2" format="ascii">
-1.763292408023412e+05 
-1.763077673284436e+05 
-1.763077673284436e+05 
-1.762449363437981e+05 
-1.762449363437981e+05 
-1.761452103789556e+05 
-1.761452103789556e+05 
-1.760151248072258e+05 
-1.760151248072258e+05 
-1.758622726946027e+05 
-1.758622726946027e+05 
-1.756943644275512e+05 
-1.756943644275512e+05 
-1.755185400274805e+05 
-1.755185400274805e+05 
-1.753409865658981e+05 
-1.753409865658981e+05 
-1.751667841828410e+05 
-1.751667841828410e+05 
-1.750000000000000e+05 
    </DataArray>
    <DataArray type="Float64" Name="phiAnalytic_2" format="ascii">
-1.762643809060346e+05 
-1.762441613281310e+05 
-1.762441613281310e+05 
-1.761849567535625e+05 
-1.761849567535625e+05 
-1.760908589146838e+05 
-1.760908589146838e+05 
-1.759678853271525e+05 
-1.759678853271525e+05 
-1.758230682585817e+05 
-1.758230682585817e+05 
-1.756635987259837e+05 
-1.756635987259837e+05 
-1.754961892772824e+05 
-1.754961892772824e+05 
-1.753267024746308e+05 
-1.753267024746308e+05 
-1.751600083877386e+05 
-1.751600083877386e+05 
-1.750000000000000e+05 
    </DataArray>
  </PointData>
  <CellData>
    <DataArray type="Float64" Name="Owner" format="ascii">
0.000000000000000e+00 
0.000000000000000e+00 
0.000000000000000e+00 
0.000000000000000e+00 
0.000000000000000e+00 
0.000000000000000e+00 
0.000000000000000e+00 
0.000000000000000e+00 
0.000000000000000e+00 
0.000000000000000e+00 
0.000000000000000e+00 
0.000000000000000e+00 
0.000000000000000e+00 
0.000000000000000e+00 
0.000000000000000e+00 
0.000000000000000e+00 
0.000000000000000e+00 
0.000000000000000e+00 
0.000000000000000e+00 
0.000000000000000e+00 
    </DataArray>
  </CellData>
</Piece>
</UnstructuredGrid>
</VTKFile>
