<?xml version="1.0" ?> 
<!-- 
# vtk DataFile Version 3.0
-->
<VTKFile type="UnstructuredGrid" version="0.1" compressor="vtkZLibDataCompressor" byte_order="LittleEndian">
<UnstructuredGrid>
<FieldData>
<DataArray type="Float32" Name="TIME" NumberOfTuples="1" format="ascii">111.6071428575</DataArray>
</FieldData>
<Piece NumberOfPoints="20" NumberOfCells="10" >
  <Points>
    <DataArray type="Float64" NumberOfComponents="3" format="ascii">
0.000000000000000e+00 0.000000000000000e+00 0.000000000000000e+00 
1.000000000000000e-04 0.000000000000000e+00 0.000000000000000e+00 
1.000000000000000e-04 0.000000000000000e+00 0.000000000000000e+00 
2.000000000000000e-04 0.000000000000000e+00 0.000000000000000e+00 
2.000000000000000e-04 0.000000000000000e+00 0.000000000000000e+00 
3.000000000000000e-04 0.000000000000000e+00 0.000000000000000e+00 
3.000000000000000e-04 0.000000000000000e+00 0.000000000000000e+00 
4.000000000000000e-04 0.000000000000000e+00 0.000000000000000e+00 
4.000000000000000e-04 0.000000000000000e+00 0.000000000000000e+00 
5.000000000000000e-04 0.000000000000000e+00 0.000000000000000e+00 
5.000000000000000e-04 0.000000000000000e+00 0.000000000000000e+00 
6.000000000000001e-04 0.000000000000000e+00 0.000000000000000e+00 
6.000000000000001e-04 0.000000000000000e+00 0.000000000000000e+00 
7.000000000000000e-04 0.000000000000000e+00 0.000000000000000e+00 
7.000000000000000e-04 0.000000000000000e+00 0.000000000000000e+00 
8.000000000000000e-04 0.000000000000000e+00 0.000000000000000e+00 
8.000000000000000e-04 0.000000000000000e+00 0.000000000000000e+00 
9.000000000000001e-04 0.000000000000000e+00 0.000000000000000e+00 
9.000000000000001e-04 0.000000000000000e+00 0.000000000000000e+00 
1.000000000000000e-03 0.000000000000000e+00 0.000000000000000e+00 
    </DataArray>
  </Points>

  <Cells>
    <DataArray type="Int32" Name="connectivity" format="ascii">
0 1 2 3 4 5 6 7 8 9 10 11 12 13 14 15 16 17 18 19     </DataArray>
    <DataArray type="Int32" Name="offsets" format="ascii">
2 4 6 8 10 12 14 16 18 20     </DataArray>
    <DataArray type="UInt8" Name="types" format="ascii">
3 3 3 3 3 3 3 3 3 3     </DataArray>
  </Cells>

  <PointData>
    <DataArray type="Float64" Name="phi_1" format="ascii">
7.119950723924788e+02 
7.718402906171953e+02 
7.718402906171953e+02 
9.593859293614719e+02 
9.593859293614719e+02 
1.298067102058041e+03 
1.298067102058041e+03 
1.825288930090855e+03 
1.825288930090855e+03 
2.590182532855295e+03 
2.590182532855295e+03 
3.648440115409748e+03 
3.648440115409748e+03 
5.048934648524752e+03 
5.048934648524752e+03 
6.817526664109079e+03 
6.817526664109079e+03 
8.902065296900542e+03 
8.902065296900542e+03 
1.125156268823250e+04 
    </DataArray>
    <DataArray type="Float64" Name="phiAnalytic_1" format="ascii">
4.961827686561388e+02 
5.736210151637493e+02 
5.736210151637493e+02 
8.151164749445340e+02 
8.151164749445340e+02 
1.246088050656525e+03 
1.246088050656525e+03 
1.901990712782009e+03 
1.901990712782009e+03 
2.818676074683893e+03 
2.818676074683893e+03 
4.020721379856737e+03 
4.020721379856737e+03 
5.510037440422382e+03 
5.510037440422382e+03 
7.257673891868868e+03 
7.257673891868868e+03 
9.201546070254806e+03 
9.201546070254806e+03 
1.125156268823250e+04 
    </DataArray>
    <DataArray type="Float64" Name="phi_2" format="ascii">
-1.818424067138830e+05 
-1.816371015274391e+05 
-1.816371015274391e+05 
-1.810877812569769e+05 
-1.810877812569769e+05 
-1.803310143050223e+05 
-1.803310143050223e+05 
-1.794832090692967e+05 
-1.794832090692967e+05 
-1.786157846031946e+05 
-1.786157846031946e+05 
-1.777686127247364e+05 
-1.777686127247364e+05 
-1.769658834789363e+05 
-1.769658834789363e+05 
-1.762260323241485e+05 
-1.762260323241485e+05 
-1.755651476281818e+05 
-1.755651476281818e+05 
-1.750000000000000e+05 
    </DataArray>
    <DataArray type="Float64" Name="phiAnalytic_2" format="ascii">
-1.827371825753353e+05 
-1.823776928717910e+05 
-1.823776928717910e+05 
-1.815067298092499e+05 
-1.815067298092499e+05 
-1.804546363234246e+05 
-1.804546363234246e+05 
-1.794063635647311e+05 
-1.794063635647311e+05 
-1.784312798742066e+05 
-1.784312798742066e+05 
-1.775508181120543e+05 
-1.775508181120543e+05 
-1.767697172175322e+05 
-1.767697172175322e+05 
-1.760868324034593e+05 
-1.760868324034593e+05 
-1.754985785279472e+05 
-1.754985785279472e+05 
-1.750000000000000e+05 
    </DataArray>
  </PointData>
  <CellData>
    <DataArray type="Float64" Name="Owner" format="ascii">
0.000000000000000e+00 
0.000000000000000e+00 
0.000000000000000e+00 
0.000000000000000e+00 
0.000000000000000e+00 
0.000000000000000e+00 
0.000000000000000e+00 
0.000000000000000e+00 
0.000000000000000e+00 
0.000000000000000e+00 
0.000000000000000e+00 
0.000000000000000e+00 
0.000000000000000e+00 
0.000000000000000e+00 
0.000000000000000e+00 
0.000000000000000e+00 
0.000000000000000e+00 
0.000000000000000e+00 
0.000000000000000e+00 
0.000000000000000e+00 
    </DataArray>
  </CellData>
</Piece>
</UnstructuredGrid>
</VTKFile>
