<?xml version="1.0" ?> 
<!-- 
# vtk DataFile Version 3.0
-->
<VTKFile type="UnstructuredGrid" version="0.1" compressor="vtkZLibDataCompressor" byte_order="LittleEndian">
<UnstructuredGrid>
<FieldData>
<DataArray type="Float32" Name="TIME" NumberOfTuples="1" format="ascii">297.61904762</DataArray>
</FieldData>
<Piece NumberOfPoints="20" NumberOfCells="10" >
  <Points>
    <DataArray type="Float64" NumberOfComponents="3" format="ascii">
0.000000000000000e+00 0.000000000000000e+00 0.000000000000000e+00 
1.000000000000000e-04 0.000000000000000e+00 0.000000000000000e+00 
1.000000000000000e-04 0.000000000000000e+00 0.000000000000000e+00 
2.000000000000000e-04 0.000000000000000e+00 0.000000000000000e+00 
2.000000000000000e-04 0.000000000000000e+00 0.000000000000000e+00 
3.000000000000000e-04 0.000000000000000e+00 0.000000000000000e+00 
3.000000000000000e-04 0.000000000000000e+00 0.000000000000000e+00 
4.000000000000000e-04 0.000000000000000e+00 0.000000000000000e+00 
4.000000000000000e-04 0.000000000000000e+00 0.000000000000000e+00 
5.000000000000000e-04 0.000000000000000e+00 0.000000000000000e+00 
5.000000000000000e-04 0.000000000000000e+00 0.000000000000000e+00 
6.000000000000001e-04 0.000000000000000e+00 0.000000000000000e+00 
6.000000000000001e-04 0.000000000000000e+00 0.000000000000000e+00 
7.000000000000000e-04 0.000000000000000e+00 0.000000000000000e+00 
7.000000000000000e-04 0.000000000000000e+00 0.000000000000000e+00 
8.000000000000000e-04 0.000000000000000e+00 0.000000000000000e+00 
8.000000000000000e-04 0.000000000000000e+00 0.000000000000000e+00 
9.000000000000001e-04 0.000000000000000e+00 0.000000000000000e+00 
9.000000000000001e-04 0.000000000000000e+00 0.000000000000000e+00 
1.000000000000000e-03 0.000000000000000e+00 0.000000000000000e+00 
    </DataArray>
  </Points>

  <Cells>
    <DataArray type="Int32" Name="connectivity" format="ascii">
0 1 2 3 4 5 6 7 8 9 10 11 12 13 14 15 16 17 18 19     </DataArray>
    <DataArray type="Int32" Name="offsets" format="ascii">
2 4 6 8 10 12 14 16 18 20     </DataArray>
    <DataArray type="UInt8" Name="types" format="ascii">
3 3 3 3 3 3 3 3 3 3     </DataArray>
  </Cells>

  <PointData>
    <DataArray type="Float64" Name="phi_1" format="ascii">
3.459582815998348e+03 
3.548308400673469e+03 
3.548308400673469e+03 
3.813877864760381e+03 
3.813877864760381e+03 
4.254074619086185e+03 
4.254074619086185e+03 
4.864094433992731e+03 
4.864094433992731e+03 
5.635318419159706e+03 
5.635318419159706e+03 
6.554360416899659e+03 
6.554360416899659e+03 
7.601755968642399e+03 
7.601755968642399e+03 
8.753871328204086e+03 
8.753871328204086e+03 
9.974583781794605e+03 
9.974583781794605e+03 
1.125156268823250e+04 
    </DataArray>
    <DataArray type="Float64" Name="phiAnalytic_1" format="ascii">
3.557388243736528e+03 
3.650328859019247e+03 
3.650328859019247e+03 
3.927251777822436e+03 
3.927251777822436e+03 
4.382422088368414e+03 
4.382422088368414e+03 
5.006173925393753e+03 
5.006173925393753e+03 
5.784812437121288e+03 
5.784812437121288e+03 
6.700588304854376e+03 
6.700588304854376e+03 
7.731824484650796e+03 
7.731824484650796e+03 
8.853259713136011e+03 
8.853259713136011e+03 
1.003664184135470e+04 
1.003664184135470e+04 
1.125156268823250e+04 
    </DataArray>
    <DataArray type="Float64" Name="phi_2" format="ascii">
-1.779234599579946e+05 
-1.778601634706557e+05 
-1.778601634706557e+05 
-1.776799763330540e+05 
-1.776799763330540e+05 
-1.774078113591203e+05 
-1.774078113591203e+05 
-1.770746133434561e+05 
-1.770746133434561e+05 
-1.767093051089285e+05 
-1.767093051089285e+05 
-1.763348314520019e+05 
-1.763348314520019e+05 
-1.759676020042296e+05 
-1.759676020042296e+05 
-1.756185923544624e+05 
-1.756185923544624e+05 
-1.752946396411597e+05 
-1.752946396411597e+05 
-1.750000000000000e+05 
    </DataArray>
    <DataArray type="Float64" Name="phiAnalytic_2" format="ascii">
-1.778543115800552e+05 
-1.777903812845231e+05 
-1.777903812845231e+05 
-1.776091235220825e+05 
-1.776091235220825e+05 
-1.773372920758040e+05 
-1.773372920758040e+05 
-1.770074346860466e+05 
-1.770074346860466e+05 
-1.766490866765946e+05 
-1.766490866765946e+05 
-1.762848009302806e+05 
-1.762848009302806e+05 
-1.759299591362339e+05 
-1.759299591362339e+05 
-1.755942257476602e+05 
-1.755942257476602e+05 
-1.752832408868924e+05 
-1.752832408868924e+05 
-1.750000000000000e+05 
    </DataArray>
  </PointData>
  <CellData>
    <DataArray type="Float64" Name="Owner" format="ascii">
0.000000000000000e+00 
0.000000000000000e+00 
0.000000000000000e+00 
0.000000000000000e+00 
0.000000000000000e+00 
0.000000000000000e+00 
0.000000000000000e+00 
0.000000000000000e+00 
0.000000000000000e+00 
0.000000000000000e+00 
0.000000000000000e+00 
0.000000000000000e+00 
0.000000000000000e+00 
0.000000000000000e+00 
0.000000000000000e+00 
0.000000000000000e+00 
0.000000000000000e+00 
0.000000000000000e+00 
0.000000000000000e+00 
0.000000000000000e+00 
    </DataArray>
  </CellData>
</Piece>
</UnstructuredGrid>
</VTKFile>
