<?xml version="1.0" ?> 
<!-- 
# vtk DataFile Version 3.0
-->
<VTKFile type="UnstructuredGrid" version="0.1" compressor="vtkZLibDataCompressor" byte_order="LittleEndian">
<UnstructuredGrid>
<FieldData>
<DataArray type="Float32" Name="TIME" NumberOfTuples="1" format="ascii">706.8452380975</DataArray>
</FieldData>
<Piece NumberOfPoints="20" NumberOfCells="10" >
  <Points>
    <DataArray type="Float64" NumberOfComponents="3" format="ascii">
0.000000000000000e+00 0.000000000000000e+00 0.000000000000000e+00 
1.000000000000000e-04 0.000000000000000e+00 0.000000000000000e+00 
1.000000000000000e-04 0.000000000000000e+00 0.000000000000000e+00 
2.000000000000000e-04 0.000000000000000e+00 0.000000000000000e+00 
2.000000000000000e-04 0.000000000000000e+00 0.000000000000000e+00 
3.000000000000000e-04 0.000000000000000e+00 0.000000000000000e+00 
3.000000000000000e-04 0.000000000000000e+00 0.000000000000000e+00 
4.000000000000000e-04 0.000000000000000e+00 0.000000000000000e+00 
4.000000000000000e-04 0.000000000000000e+00 0.000000000000000e+00 
5.000000000000000e-04 0.000000000000000e+00 0.000000000000000e+00 
5.000000000000000e-04 0.000000000000000e+00 0.000000000000000e+00 
6.000000000000001e-04 0.000000000000000e+00 0.000000000000000e+00 
6.000000000000001e-04 0.000000000000000e+00 0.000000000000000e+00 
7.000000000000000e-04 0.000000000000000e+00 0.000000000000000e+00 
7.000000000000000e-04 0.000000000000000e+00 0.000000000000000e+00 
8.000000000000000e-04 0.000000000000000e+00 0.000000000000000e+00 
8.000000000000000e-04 0.000000000000000e+00 0.000000000000000e+00 
9.000000000000001e-04 0.000000000000000e+00 0.000000000000000e+00 
9.000000000000001e-04 0.000000000000000e+00 0.000000000000000e+00 
1.000000000000000e-03 0.000000000000000e+00 0.000000000000000e+00 
    </DataArray>
  </Points>

  <Cells>
    <DataArray type="Int32" Name="connectivity" format="ascii">
0 1 2 3 4 5 6 7 8 9 10 11 12 13 14 15 16 17 18 19     </DataArray>
    <DataArray type="Int32" Name="offsets" format="ascii">
2 4 6 8 10 12 14 16 18 20     </DataArray>
    <DataArray type="UInt8" Name="types" format="ascii">
3 3 3 3 3 3 3 3 3 3     </DataArray>
  </Cells>

  <PointData>
    <DataArray type="Float64" Name="phi_1" format="ascii">
7.781857370153012e+03 
7.824440226001608e+03 
7.824440226001608e+03 
7.951161865305692e+03 
7.951161865305692e+03 
8.158961359948966e+03 
8.158961359948966e+03 
8.442808933195014e+03 
8.442808933195014e+03 
8.795804667991963e+03 
8.795804667991963e+03 
9.209364490082859e+03 
9.209364490082859e+03 
9.673295539508654e+03 
9.673295539508654e+03 
1.017651131454296e+04 
1.017651131454296e+04 
1.070549994423280e+04 
1.070549994423280e+04 
1.125156268823250e+04 
    </DataArray>
    <DataArray type="Float64" Name="phiAnalytic_1" format="ascii">
7.949023124791669e+03 
7.989682001952502e+03 
7.989682001952502e+03 
8.110657665524074e+03 
8.110657665524074e+03 
8.308971817816790e+03 
8.308971817816790e+03 
8.579742052570626e+03 
8.579742052570626e+03 
8.916301913309449e+03 
8.916301913309449e+03 
9.310364868070885e+03 
9.310364868070885e+03 
9.752228201178055e+03 
9.752228201178055e+03 
1.023101183429104e+04 
1.023101183429104e+04 
1.073492621622818e+04 
1.073492621622818e+04 
1.125156268823250e+04 
    </DataArray>
    <DataArray type="Float64" Name="phi_2" format="ascii">
-1.759139723162827e+05 
-1.759004204943134e+05 
-1.759004204943134e+05 
-1.758605279606910e+05 
-1.758605279606910e+05 
-1.757964798943970e+05 
-1.757964798943970e+05 
-1.757116013634125e+05 
-1.757116013634125e+05 
-1.756099689116194e+05 
-1.756099689116194e+05 
-1.754960031802966e+05 
-1.754960031802966e+05 
-1.753741132244814e+05 
-1.753741132244814e+05 
-1.752484352404592e+05 
-1.752484352404592e+05 
-1.751226634963292e+05 
-1.751226634963292e+05 
-1.750000000000000e+05 
    </DataArray>
    <DataArray type="Float64" Name="phiAnalytic_2" format="ascii">
-1.758612854794853e+05 
-1.758486387532792e+05 
-1.758486387532792e+05 
-1.758113870635176e+05 
-1.758113870635176e+05 
-1.757515064414363e+05 
-1.757515064414363e+05 
-1.756720157292016e+05 
-1.756720157292016e+05 
-1.755766371465654e+05 
-1.755766371465654e+05 
-1.754694356455762e+05 
-1.754694356455762e+05 
-1.753544989740666e+05 
-1.753544989740666e+05 
-1.752356948975744e+05 
-1.752356948975744e+05 
-1.751165155693819e+05 
-1.751165155693819e+05 
-1.750000000000000e+05 
    </DataArray>
  </PointData>
  <CellData>
    <DataArray type="Float64" Name="Owner" format="ascii">
0.000000000000000e+00 
0.000000000000000e+00 
0.000000000000000e+00 
0.000000000000000e+00 
0.000000000000000e+00 
0.000000000000000e+00 
0.000000000000000e+00 
0.000000000000000e+00 
0.000000000000000e+00 
0.000000000000000e+00 
0.000000000000000e+00 
0.000000000000000e+00 
0.000000000000000e+00 
0.000000000000000e+00 
0.000000000000000e+00 
0.000000000000000e+00 
0.000000000000000e+00 
0.000000000000000e+00 
0.000000000000000e+00 
0.000000000000000e+00 
    </DataArray>
  </CellData>
</Piece>
</UnstructuredGrid>
</VTKFile>
