<?xml version="1.0" ?> 
<!-- 
# vtk DataFile Version 3.0
-->
<VTKFile type="UnstructuredGrid" version="0.1" compressor="vtkZLibDataCompressor" byte_order="LittleEndian">
<UnstructuredGrid>
<FieldData>
<DataArray type="Float32" Name="TIME" NumberOfTuples="1" format="ascii">520.833333335</DataArray>
</FieldData>
<Piece NumberOfPoints="20" NumberOfCells="10" >
  <Points>
    <DataArray type="Float64" NumberOfComponents="3" format="ascii">
0.000000000000000e+00 0.000000000000000e+00 0.000000000000000e+00 
1.000000000000000e-04 0.000000000000000e+00 0.000000000000000e+00 
1.000000000000000e-04 0.000000000000000e+00 0.000000000000000e+00 
2.000000000000000e-04 0.000000000000000e+00 0.000000000000000e+00 
2.000000000000000e-04 0.000000000000000e+00 0.000000000000000e+00 
3.000000000000000e-04 0.000000000000000e+00 0.000000000000000e+00 
3.000000000000000e-04 0.000000000000000e+00 0.000000000000000e+00 
4.000000000000000e-04 0.000000000000000e+00 0.000000000000000e+00 
4.000000000000000e-04 0.000000000000000e+00 0.000000000000000e+00 
5.000000000000000e-04 0.000000000000000e+00 0.000000000000000e+00 
5.000000000000000e-04 0.000000000000000e+00 0.000000000000000e+00 
6.000000000000001e-04 0.000000000000000e+00 0.000000000000000e+00 
6.000000000000001e-04 0.000000000000000e+00 0.000000000000000e+00 
7.000000000000000e-04 0.000000000000000e+00 0.000000000000000e+00 
7.000000000000000e-04 0.000000000000000e+00 0.000000000000000e+00 
8.000000000000000e-04 0.000000000000000e+00 0.000000000000000e+00 
8.000000000000000e-04 0.000000000000000e+00 0.000000000000000e+00 
9.000000000000001e-04 0.000000000000000e+00 0.000000000000000e+00 
9.000000000000001e-04 0.000000000000000e+00 0.000000000000000e+00 
1.000000000000000e-03 0.000000000000000e+00 0.000000000000000e+00 
    </DataArray>
  </Points>

  <Cells>
    <DataArray type="Int32" Name="connectivity" format="ascii">
0 1 2 3 4 5 6 7 8 9 10 11 12 13 14 15 16 17 18 19     </DataArray>
    <DataArray type="Int32" Name="offsets" format="ascii">
2 4 6 8 10 12 14 16 18 20     </DataArray>
    <DataArray type="UInt8" Name="types" format="ascii">
3 3 3 3 3 3 3 3 3 3     </DataArray>
  </Cells>

  <PointData>
    <DataArray type="Float64" Name="phi_1" format="ascii">
6.222237354377712e+03 
6.283599042714686e+03 
6.283599042714686e+03 
6.466285200092077e+03 
6.466285200092077e+03 
6.766103000212501e+03 
6.766103000212501e+03 
7.176097188916538e+03 
7.176097188916538e+03 
7.686608302988944e+03 
7.686608302988944e+03 
8.285484190784620e+03 
8.285484190784620e+03 
8.958070835988425e+03 
8.958070835988425e+03 
9.688488716512471e+03 
9.688488716512471e+03 
1.045635008475846e+04 
1.045635008475846e+04 
1.125156268823250e+04 
    </DataArray>
    <DataArray type="Float64" Name="phiAnalytic_1" format="ascii">
6.395797670551084e+03 
6.455552399649662e+03 
6.455552399649662e+03 
6.633351286354076e+03 
6.633351286354076e+03 
6.924833188637874e+03 
6.924833188637874e+03 
7.322844834302116e+03 
7.322844834302116e+03 
7.817611731036364e+03 
7.817611731036364e+03 
8.396973206374894e+03 
8.396973206374894e+03 
9.046677019636147e+03 
9.046677019636147e+03 
9.750727343129220e+03 
9.750727343129220e+03 
1.049177818860169e+04 
1.049177818860169e+04 
1.125156268823250e+04 
    </DataArray>
    <DataArray type="Float64" Name="phi_2" format="ascii">
-1.764684031074735e+05 
-1.764439983097519e+05 
-1.764439983097519e+05 
-1.763727451258278e+05 
-1.763727451258278e+05 
-1.762601111028632e+05 
-1.762601111028632e+05 
-1.761139966130611e+05 
-1.761139966130611e+05 
-1.759434115507168e+05 
-1.759434115507168e+05 
-1.757573029879520e+05 
-1.757573029879520e+05 
-1.755637533509787e+05 
-1.755637533509787e+05 
-1.753695858759858e+05 
-1.753695858759858e+05 
-1.751802505654995e+05 
-1.751802505654995e+05 
-1.750000000000000e+05 
    </DataArray>
    <DataArray type="Float64" Name="phiAnalytic_2" format="ascii">
-1.764002002923751e+05 
-1.763771486704914e+05 
-1.763771486704914e+05 
-1.763098002663296e+05 
-1.763098002663296e+05 
-1.762032015909233e+05 
-1.762032015909233e+05 
-1.760646729651382e+05 
-1.760646729651382e+05 
-1.759026072477764e+05 
-1.759026072477764e+05 
-1.757253910028698e+05 
-1.757253910028698e+05 
-1.755406540304110e+05 
-1.755406540304110e+05 
-1.753548804911753e+05 
-1.753548804911753e+05 
-1.751733068947918e+05 
-1.751733068947918e+05 
-1.750000000000000e+05 
    </DataArray>
  </PointData>
  <CellData>
    <DataArray type="Float64" Name="Owner" format="ascii">
0.000000000000000e+00 
0.000000000000000e+00 
0.000000000000000e+00 
0.000000000000000e+00 
0.000000000000000e+00 
0.000000000000000e+00 
0.000000000000000e+00 
0.000000000000000e+00 
0.000000000000000e+00 
0.000000000000000e+00 
0.000000000000000e+00 
0.000000000000000e+00 
0.000000000000000e+00 
0.000000000000000e+00 
0.000000000000000e+00 
0.000000000000000e+00 
0.000000000000000e+00 
0.000000000000000e+00 
0.000000000000000e+00 
0.000000000000000e+00 
    </DataArray>
  </CellData>
</Piece>
</UnstructuredGrid>
</VTKFile>
