<?xml version="1.0" ?> 
<!-- 
# vtk DataFile Version 3.0
-->
<VTKFile type="UnstructuredGrid" version="0.1" compressor="vtkZLibDataCompressor" byte_order="LittleEndian">
<UnstructuredGrid>
<FieldData>
<DataArray type="Float32" Name="TIME" NumberOfTuples="1" format="ascii">892.85714286</DataArray>
</FieldData>
<Piece NumberOfPoints="20" NumberOfCells="10" >
  <Points>
    <DataArray type="Float64" NumberOfComponents="3" format="ascii">
0.000000000000000e+00 0.000000000000000e+00 0.000000000000000e+00 
1.000000000000000e-04 0.000000000000000e+00 0.000000000000000e+00 
1.000000000000000e-04 0.000000000000000e+00 0.000000000000000e+00 
2.000000000000000e-04 0.000000000000000e+00 0.000000000000000e+00 
2.000000000000000e-04 0.000000000000000e+00 0.000000000000000e+00 
3.000000000000000e-04 0.000000000000000e+00 0.000000000000000e+00 
3.000000000000000e-04 0.000000000000000e+00 0.000000000000000e+00 
4.000000000000000e-04 0.000000000000000e+00 0.000000000000000e+00 
4.000000000000000e-04 0.000000000000000e+00 0.000000000000000e+00 
5.000000000000000e-04 0.000000000000000e+00 0.000000000000000e+00 
5.000000000000000e-04 0.000000000000000e+00 0.000000000000000e+00 
6.000000000000001e-04 0.000000000000000e+00 0.000000000000000e+00 
6.000000000000001e-04 0.000000000000000e+00 0.000000000000000e+00 
7.000000000000000e-04 0.000000000000000e+00 0.000000000000000e+00 
7.000000000000000e-04 0.000000000000000e+00 0.000000000000000e+00 
8.000000000000000e-04 0.000000000000000e+00 0.000000000000000e+00 
8.000000000000000e-04 0.000000000000000e+00 0.000000000000000e+00 
9.000000000000001e-04 0.000000000000000e+00 0.000000000000000e+00 
9.000000000000001e-04 0.000000000000000e+00 0.000000000000000e+00 
1.000000000000000e-03 0.000000000000000e+00 0.000000000000000e+00 
    </DataArray>
  </Points>

  <Cells>
    <DataArray type="Int32" Name="connectivity" format="ascii">
0 1 2 3 4 5 6 7 8 9 10 11 12 13 14 15 16 17 18 19     </DataArray>
    <DataArray type="Int32" Name="offsets" format="ascii">
2 4 6 8 10 12 14 16 18 20     </DataArray>
    <DataArray type="UInt8" Name="types" format="ascii">
3 3 3 3 3 3 3 3 3 3     </DataArray>
  </Cells>

  <PointData>
    <DataArray type="Float64" Name="phi_1" format="ascii">
8.859281065353360e+03 
8.888683656965441e+03 
8.888683656965441e+03 
8.976174189372887e+03 
8.976174189372887e+03 
9.119617056377941e+03 
9.119617056377941e+03 
9.315508852012310e+03 
9.315508852012310e+03 
9.559055913849430e+03 
9.559055913849430e+03 
9.844303742512973e+03 
9.844303742512973e+03 
1.016421851193306e+04 
1.016421851193306e+04 
1.051108815294823e+04 
1.051108815294823e+04 
1.087583512541954e+04 
1.087583512541954e+04 
1.125156268823250e+04 
    </DataArray>
    <DataArray type="Float64" Name="phiAnalytic_1" format="ascii">
9.005535636337689e+03 
9.033187929489059e+03 
9.033187929489059e+03 
9.115463923582520e+03 
9.115463923582520e+03 
9.250337726913995e+03 
9.250337726913995e+03 
9.434488322053789e+03 
9.434488322053789e+03 
9.663381335253958e+03 
9.663381335253958e+03 
9.931380682314824e+03 
9.931380682314824e+03 
1.023188734300992e+04 
1.023188734300992e+04 
1.055750184800119e+04 
1.055750184800119e+04 
1.090020647790147e+04 
1.090020647790147e+04 
1.125156268823250e+04 
    </DataArray>
    <DataArray type="Float64" Name="phi_2" format="ascii">
-1.755925411533323e+05 
-1.755843189070510e+05 
-1.755843189070510e+05 
-1.755600138422843e+05 
-1.755600138422843e+05 
-1.755206766849096e+05 
-1.755206766849096e+05 
-1.754679509788842e+05 
-1.754679509788842e+05 
-1.754039327291711e+05 
-1.754039327291711e+05 
-1.753310095629033e+05 
-1.753310095629033e+05 
-1.752517022582443e+05 
-1.752517022582443e+05 
-1.751685271479262e+05 
-1.751685271479262e+05 
-1.750838862037102e+05 
-1.750838862037102e+05 
-1.750000000000000e+05 
    </DataArray>
    <DataArray type="Float64" Name="phiAnalytic_2" format="ascii">
-1.755519526147151e+05 
-1.755443528434936e+05 
-1.755443528434936e+05 
-1.755218774878049e+05 
-1.755218774878049e+05 
-1.754854691919393e+05 
-1.754854691919393e+05 
-1.754366069984303e+05 
-1.754366069984303e+05 
-1.753771855495352e+05 
-1.753771855495352e+05 
-1.753093752512886e+05 
-1.753093752512886e+05 
-1.752354827841571e+05 
-1.752354827841571e+05 
-1.751578272592510e+05 
-1.751578272592510e+05 
-1.750786412613545e+05 
-1.750786412613545e+05 
-1.750000000000000e+05 
    </DataArray>
  </PointData>
  <CellData>
    <DataArray type="Float64" Name="Owner" format="ascii">
0.000000000000000e+00 
0.000000000000000e+00 
0.000000000000000e+00 
0.000000000000000e+00 
0.000000000000000e+00 
0.000000000000000e+00 
0.000000000000000e+00 
0.000000000000000e+00 
0.000000000000000e+00 
0.000000000000000e+00 
0.000000000000000e+00 
0.000000000000000e+00 
0.000000000000000e+00 
0.000000000000000e+00 
0.000000000000000e+00 
0.000000000000000e+00 
0.000000000000000e+00 
0.000000000000000e+00 
0.000000000000000e+00 
0.000000000000000e+00 
    </DataArray>
  </CellData>
</Piece>
</UnstructuredGrid>
</VTKFile>
