<?xml version="1.0" ?> 
<!-- 
# vtk DataFile Version 3.0
-->
<VTKFile type="UnstructuredGrid" version="0.1" compressor="vtkZLibDataCompressor" byte_order="LittleEndian">
<UnstructuredGrid>
<FieldData>
<DataArray type="Float32" Name="TIME" NumberOfTuples="1" format="ascii">818.452380955</DataArray>
</FieldData>
<Piece NumberOfPoints="20" NumberOfCells="10" >
  <Points>
    <DataArray type="Float64" NumberOfComponents="3" format="ascii">
0.000000000000000e+00 0.000000000000000e+00 0.000000000000000e+00 
1.000000000000000e-04 0.000000000000000e+00 0.000000000000000e+00 
1.000000000000000e-04 0.000000000000000e+00 0.000000000000000e+00 
2.000000000000000e-04 0.000000000000000e+00 0.000000000000000e+00 
2.000000000000000e-04 0.000000000000000e+00 0.000000000000000e+00 
3.000000000000000e-04 0.000000000000000e+00 0.000000000000000e+00 
3.000000000000000e-04 0.000000000000000e+00 0.000000000000000e+00 
4.000000000000000e-04 0.000000000000000e+00 0.000000000000000e+00 
4.000000000000000e-04 0.000000000000000e+00 0.000000000000000e+00 
5.000000000000000e-04 0.000000000000000e+00 0.000000000000000e+00 
5.000000000000000e-04 0.000000000000000e+00 0.000000000000000e+00 
6.000000000000001e-04 0.000000000000000e+00 0.000000000000000e+00 
6.000000000000001e-04 0.000000000000000e+00 0.000000000000000e+00 
7.000000000000000e-04 0.000000000000000e+00 0.000000000000000e+00 
7.000000000000000e-04 0.000000000000000e+00 0.000000000000000e+00 
8.000000000000000e-04 0.000000000000000e+00 0.000000000000000e+00 
8.000000000000000e-04 0.000000000000000e+00 0.000000000000000e+00 
9.000000000000001e-04 0.000000000000000e+00 0.000000000000000e+00 
9.000000000000001e-04 0.000000000000000e+00 0.000000000000000e+00 
1.000000000000000e-03 0.000000000000000e+00 0.000000000000000e+00 
    </DataArray>
  </Points>

  <Cells>
    <DataArray type="Int32" Name="connectivity" format="ascii">
0 1 2 3 4 5 6 7 8 9 10 11 12 13 14 15 16 17 18 19     </DataArray>
    <DataArray type="Int32" Name="offsets" format="ascii">
2 4 6 8 10 12 14 16 18 20     </DataArray>
    <DataArray type="UInt8" Name="types" format="ascii">
3 3 3 3 3 3 3 3 3 3     </DataArray>
  </Cells>

  <PointData>
    <DataArray type="Float64" Name="phi_1" format="ascii">
8.475586862938422e+03 
8.509691066831292e+03 
8.509691066831292e+03 
8.611174256720326e+03 
8.611174256720326e+03 
8.777566147944266e+03 
8.777566147944266e+03 
9.004812674061959e+03 
9.004812674061959e+03 
9.287362927703172e+03 
9.287362927703172e+03 
9.618319741269244e+03 
9.618319741269244e+03 
9.989522282617496e+03 
9.989522282617496e+03 
1.039205049751857e+04 
1.039205049751857e+04 
1.081527282650224e+04 
1.081527282650224e+04 
1.125156268823250e+04 
    </DataArray>
    <DataArray type="Float64" Name="phiAnalytic_1" format="ascii">
8.631036408592019e+03 
8.663299327731287e+03 
8.663299327731287e+03 
8.759293688521200e+03 
8.759293688521200e+03 
8.916655856633393e+03 
8.916655856633393e+03 
9.131511146299643e+03 
9.131511146299643e+03 
9.398569207647706e+03 
9.398569207647706e+03 
9.711254270781887e+03 
9.711254270781887e+03 
1.006186704433881e+04 
1.006186704433881e+04 
1.044177428611988e+04 
1.044177428611988e+04 
1.084162138044350e+04 
1.084162138044350e+04 
1.125156268823250e+04 
    </DataArray>
    <DataArray type="Float64" Name="phi_2" format="ascii">
-1.757022930037667e+05 
-1.756923254159648e+05 
-1.756923254159648e+05 
-1.756629015499579e+05 
-1.756629015499579e+05 
-1.756154061179542e+05 
-1.756154061179542e+05 
-1.755519852215728e+05 
-1.755519852215728e+05 
-1.754753398055448e+05 
-1.754753398055448e+05 
-1.753884958879400e+05 
-1.753884958879400e+05 
-1.752945870769659e+05 
-1.752945870769659e+05 
-1.751966757126567e+05 
-1.751966757126567e+05 
-1.750976190048018e+05 
-1.750976190048018e+05 
-1.750000000000000e+05 
    </DataArray>
    <DataArray type="Float64" Name="phiAnalytic_2" format="ascii">
-1.756572401272511e+05 
-1.756479915461922e+05 
-1.756479915461922e+05 
-1.756206758575663e+05 
-1.756206758575663e+05 
-1.755765387488141e+05 
-1.755765387488141e+05 
-1.755175175133680e+05 
-1.755175175133680e+05 
-1.754460624036043e+05 
-1.754460624036043e+05 
-1.753649356584014e+05 
-1.753649356584014e+05 
-1.752770186593484e+05 
-1.752770186593484e+05 
-1.751851492100841e+05 
-1.751851492100841e+05 
-1.750920000470993e+05 
-1.750920000470993e+05 
-1.750000000000000e+05 
    </DataArray>
  </PointData>
  <CellData>
    <DataArray type="Float64" Name="Owner" format="ascii">
0.000000000000000e+00 
0.000000000000000e+00 
0.000000000000000e+00 
0.000000000000000e+00 
0.000000000000000e+00 
0.000000000000000e+00 
0.000000000000000e+00 
0.000000000000000e+00 
0.000000000000000e+00 
0.000000000000000e+00 
0.000000000000000e+00 
0.000000000000000e+00 
0.000000000000000e+00 
0.000000000000000e+00 
0.000000000000000e+00 
0.000000000000000e+00 
0.000000000000000e+00 
0.000000000000000e+00 
0.000000000000000e+00 
0.000000000000000e+00 
    </DataArray>
  </CellData>
</Piece>
</UnstructuredGrid>
</VTKFile>
