<?xml version="1.0" ?> 
<!-- 
# vtk DataFile Version 3.0
-->
<VTKFile type="UnstructuredGrid" version="0.1" compressor="vtkZLibDataCompressor" byte_order="LittleEndian">
<UnstructuredGrid>
<FieldData>
<DataArray type="Float32" Name="TIME" NumberOfTuples="1" format="ascii">967.261904765</DataArray>
</FieldData>
<Piece NumberOfPoints="20" NumberOfCells="10" >
  <Points>
    <DataArray type="Float64" NumberOfComponents="3" format="ascii">
0.000000000000000e+00 0.000000000000000e+00 0.000000000000000e+00 
1.000000000000000e-04 0.000000000000000e+00 0.000000000000000e+00 
1.000000000000000e-04 0.000000000000000e+00 0.000000000000000e+00 
2.000000000000000e-04 0.000000000000000e+00 0.000000000000000e+00 
2.000000000000000e-04 0.000000000000000e+00 0.000000000000000e+00 
3.000000000000000e-04 0.000000000000000e+00 0.000000000000000e+00 
3.000000000000000e-04 0.000000000000000e+00 0.000000000000000e+00 
4.000000000000000e-04 0.000000000000000e+00 0.000000000000000e+00 
4.000000000000000e-04 0.000000000000000e+00 0.000000000000000e+00 
5.000000000000000e-04 0.000000000000000e+00 0.000000000000000e+00 
5.000000000000000e-04 0.000000000000000e+00 0.000000000000000e+00 
6.000000000000001e-04 0.000000000000000e+00 0.000000000000000e+00 
6.000000000000001e-04 0.000000000000000e+00 0.000000000000000e+00 
7.000000000000000e-04 0.000000000000000e+00 0.000000000000000e+00 
7.000000000000000e-04 0.000000000000000e+00 0.000000000000000e+00 
8.000000000000000e-04 0.000000000000000e+00 0.000000000000000e+00 
8.000000000000000e-04 0.000000000000000e+00 0.000000000000000e+00 
9.000000000000001e-04 0.000000000000000e+00 0.000000000000000e+00 
9.000000000000001e-04 0.000000000000000e+00 0.000000000000000e+00 
1.000000000000000e-03 0.000000000000000e+00 0.000000000000000e+00 
    </DataArray>
  </Points>

  <Cells>
    <DataArray type="Int32" Name="connectivity" format="ascii">
0 1 2 3 4 5 6 7 8 9 10 11 12 13 14 15 16 17 18 19     </DataArray>
    <DataArray type="Int32" Name="offsets" format="ascii">
2 4 6 8 10 12 14 16 18 20     </DataArray>
    <DataArray type="UInt8" Name="types" format="ascii">
3 3 3 3 3 3 3 3 3 3     </DataArray>
  </Cells>

  <PointData>
    <DataArray type="Float64" Name="phi_1" format="ascii">
9.189982180227134e+03 
9.215328032793819e+03 
9.215328032793819e+03 
9.290746041837525e+03 
9.290746041837525e+03 
9.414391806524149e+03 
9.414391806524149e+03 
9.583240365232106e+03 
9.583240365232106e+03 
9.793154613712444e+03 
9.793154613712444e+03 
1.003899619413217e+04 
1.003899619413217e+04 
1.031470340391582e+04 
1.031470340391582e+04 
1.061361125485018e+04 
1.061361125485018e+04 
1.092795992807591e+04 
1.092795992807591e+04 
1.125156268823250e+04 
    </DataArray>
    <DataArray type="Float64" Name="phiAnalytic_1" format="ascii">
9.326515617364937e+03 
9.350216134519258e+03 
9.350216134519258e+03 
9.420734102057359e+03 
9.420734102057359e+03 
9.536333137658352e+03 
9.536333137658352e+03 
9.694166815212348e+03 
9.694166815212348e+03 
9.890348752014184e+03 
9.890348752014184e+03 
1.012004830304003e+04 
1.012004830304003e+04 
1.037760950629346e+04 
1.037760950629346e+04 
1.065669035064613e+04 
1.065669035064613e+04 
1.095041893709232e+04 
1.095041893709232e+04 
1.125156268823250e+04 
    </DataArray>
    <DataArray type="Float64" Name="phi_2" format="ascii">
-1.755016962187069e+05 
-1.754948628247469e+05 
-1.754948628247469e+05 
-1.754746410528340e+05 
-1.754746410528340e+05 
-1.754418428337233e+05 
-1.754418428337233e+05 
-1.753977477134140e+05 
-1.753977477134140e+05 
-1.753440051693449e+05 
-1.753440051693449e+05 
-1.752825199217316e+05 
-1.752825199217316e+05 
-1.752153351862559e+05 
-1.752153351862559e+05 
-1.751445268022185e+05 
-1.751445268022185e+05 
-1.750721142661744e+05 
-1.750721142661744e+05 
-1.750000000000000e+05 
    </DataArray>
    <DataArray type="Float64" Name="phiAnalytic_2" format="ascii">
-1.754651393476112e+05 
-1.754588481691633e+05 
-1.754588481691633e+05 
-1.754402234213515e+05 
-1.754402234213515e+05 
-1.754099916723571e+05 
-1.754099916723571e+05 
-1.753693011109207e+05 
-1.753693011109207e+05 
-1.753196378147199e+05 
-1.753196378147199e+05 
-1.752627265356943e+05 
-1.752627265356943e+05 
-1.752004285658000e+05 
-1.752004285658000e+05 
-1.751346472914037e+05 
-1.751346472914037e+05 
-1.750672486517948e+05 
-1.750672486517948e+05 
-1.750000000000000e+05 
    </DataArray>
  </PointData>
  <CellData>
    <DataArray type="Float64" Name="Owner" format="ascii">
0.000000000000000e+00 
0.000000000000000e+00 
0.000000000000000e+00 
0.000000000000000e+00 
0.000000000000000e+00 
0.000000000000000e+00 
0.000000000000000e+00 
0.000000000000000e+00 
0.000000000000000e+00 
0.000000000000000e+00 
0.000000000000000e+00 
0.000000000000000e+00 
0.000000000000000e+00 
0.000000000000000e+00 
0.000000000000000e+00 
0.000000000000000e+00 
0.000000000000000e+00 
0.000000000000000e+00 
0.000000000000000e+00 
0.000000000000000e+00 
    </DataArray>
  </CellData>
</Piece>
</UnstructuredGrid>
</VTKFile>
