<?xml version="1.0" ?> 
<!-- 
# vtk DataFile Version 3.0
-->
<VTKFile type="UnstructuredGrid" version="0.1" compressor="vtkZLibDataCompressor" byte_order="LittleEndian">
<UnstructuredGrid>
<FieldData>
<DataArray type="Float32" Name="TIME" NumberOfTuples="1" format="ascii">781.2500000025</DataArray>
</FieldData>
<Piece NumberOfPoints="20" NumberOfCells="10" >
  <Points>
    <DataArray type="Float64" NumberOfComponents="3" format="ascii">
0.000000000000000e+00 0.000000000000000e+00 0.000000000000000e+00 
1.000000000000000e-04 0.000000000000000e+00 0.000000000000000e+00 
1.000000000000000e-04 0.000000000000000e+00 0.000000000000000e+00 
2.000000000000000e-04 0.000000000000000e+00 0.000000000000000e+00 
2.000000000000000e-04 0.000000000000000e+00 0.000000000000000e+00 
3.000000000000000e-04 0.000000000000000e+00 0.000000000000000e+00 
3.000000000000000e-04 0.000000000000000e+00 0.000000000000000e+00 
4.000000000000000e-04 0.000000000000000e+00 0.000000000000000e+00 
4.000000000000000e-04 0.000000000000000e+00 0.000000000000000e+00 
5.000000000000000e-04 0.000000000000000e+00 0.000000000000000e+00 
5.000000000000000e-04 0.000000000000000e+00 0.000000000000000e+00 
6.000000000000001e-04 0.000000000000000e+00 0.000000000000000e+00 
6.000000000000001e-04 0.000000000000000e+00 0.000000000000000e+00 
7.000000000000000e-04 0.000000000000000e+00 0.000000000000000e+00 
7.000000000000000e-04 0.000000000000000e+00 0.000000000000000e+00 
8.000000000000000e-04 0.000000000000000e+00 0.000000000000000e+00 
8.000000000000000e-04 0.000000000000000e+00 0.000000000000000e+00 
9.000000000000001e-04 0.000000000000000e+00 0.000000000000000e+00 
9.000000000000001e-04 0.000000000000000e+00 0.000000000000000e+00 
1.000000000000000e-03 0.000000000000000e+00 0.000000000000000e+00 
    </DataArray>
  </Points>

  <Cells>
    <DataArray type="Int32" Name="connectivity" format="ascii">
0 1 2 3 4 5 6 7 8 9 10 11 12 13 14 15 16 17 18 19     </DataArray>
    <DataArray type="Int32" Name="offsets" format="ascii">
2 4 6 8 10 12 14 16 18 20     </DataArray>
    <DataArray type="UInt8" Name="types" format="ascii">
3 3 3 3 3 3 3 3 3 3     </DataArray>
  </Cells>

  <PointData>
    <DataArray type="Float64" Name="phi_1" format="ascii">
8.261276447227741e+03 
8.298003541196185e+03 
8.298003541196185e+03 
8.407293494218098e+03 
8.407293494218098e+03 
8.586491130877897e+03 
8.586491130877897e+03 
8.831237636383496e+03 
8.831237636383496e+03 
9.135561999912967e+03 
9.135561999912967e+03 
9.492043068942428e+03 
9.492043068942428e+03 
9.891891242690468e+03 
9.891891242690468e+03 
1.032551483960883e+04 
1.032551483960883e+04 
1.078140238951759e+04 
1.078140238951759e+04 
1.125156268823250e+04 
    </DataArray>
    <DataArray type="Float64" Name="phiAnalytic_1" format="ascii">
8.420984241684113e+03 
8.455833143507749e+03 
8.455833143507749e+03 
8.559521800428583e+03 
8.559521800428583e+03 
8.729497184538850e+03 
8.729497184538850e+03 
8.961574124048097e+03 
8.961574124048097e+03 
9.250038315495351e+03 
9.250038315495351e+03 
9.587786985047680e+03 
9.587786985047680e+03 
9.966503744888796e+03 
9.966503744888796e+03 
1.037686334732229e+04 
1.037686334732229e+04 
1.080876129987016e+04 
1.080876129987016e+04 
1.125156268823250e+04 
    </DataArray>
    <DataArray type="Float64" Name="phi_2" format="ascii">
-1.757657777551659e+05 
-1.757547658983926e+05 
-1.757547658983926e+05 
-1.757222860074214e+05 
-1.757222860074214e+05 
-1.756699403246931e+05 
-1.756699403246931e+05 
-1.756001986560524e+05 
-1.756001986560524e+05 
-1.755161453076647e+05 
-1.755161453076647e+05 
-1.754212024249926e+05 
-1.754212024249926e+05 
-1.753188742579926e+05 
-1.753188742579926e+05 
-1.752125435840281e+05 
-1.752125435840281e+05 
-1.751053253772588e+05 
-1.751053253772588e+05 
-1.750000000000000e+05 
    </DataArray>
    <DataArray type="Float64" Name="phiAnalytic_2" format="ascii">
-1.757183129669598e+05 
-1.757080759365697e+05 
-1.757080759365697e+05 
-1.756778645650560e+05 
-1.756778645650560e+05 
-1.756291224351698e+05 
-1.756291224351698e+05 
-1.755640828744224e+05 
-1.755640828744224e+05 
-1.754855494267131e+05 
-1.754855494267131e+05 
-1.753966530103301e+05 
-1.753966530103301e+05 
-1.753006241894255e+05 
-1.753006241894255e+05 
-1.752006068014143e+05 
-1.752006068014143e+05 
-1.750995245568598e+05 
-1.750995245568598e+05 
-1.750000000000000e+05 
    </DataArray>
  </PointData>
  <CellData>
    <DataArray type="Float64" Name="Owner" format="ascii">
0.000000000000000e+00 
0.000000000000000e+00 
0.000000000000000e+00 
0.000000000000000e+00 
0.000000000000000e+00 
0.000000000000000e+00 
0.000000000000000e+00 
0.000000000000000e+00 
0.000000000000000e+00 
0.000000000000000e+00 
0.000000000000000e+00 
0.000000000000000e+00 
0.000000000000000e+00 
0.000000000000000e+00 
0.000000000000000e+00 
0.000000000000000e+00 
0.000000000000000e+00 
0.000000000000000e+00 
0.000000000000000e+00 
0.000000000000000e+00 
    </DataArray>
  </CellData>
</Piece>
</UnstructuredGrid>
</VTKFile>
