<?xml version="1.0" ?> 
<!-- 
# vtk DataFile Version 3.0
-->
<VTKFile type="UnstructuredGrid" version="0.1" compressor="vtkZLibDataCompressor" byte_order="LittleEndian">
<UnstructuredGrid>
<FieldData>
<DataArray type="Float32" Name="TIME" NumberOfTuples="1" format="ascii">409.2261904775</DataArray>
</FieldData>
<Piece NumberOfPoints="20" NumberOfCells="10" >
  <Points>
    <DataArray type="Float64" NumberOfComponents="3" format="ascii">
0.000000000000000e+00 0.000000000000000e+00 0.000000000000000e+00 
1.000000000000000e-04 0.000000000000000e+00 0.000000000000000e+00 
1.000000000000000e-04 0.000000000000000e+00 0.000000000000000e+00 
2.000000000000000e-04 0.000000000000000e+00 0.000000000000000e+00 
2.000000000000000e-04 0.000000000000000e+00 0.000000000000000e+00 
3.000000000000000e-04 0.000000000000000e+00 0.000000000000000e+00 
3.000000000000000e-04 0.000000000000000e+00 0.000000000000000e+00 
4.000000000000000e-04 0.000000000000000e+00 0.000000000000000e+00 
4.000000000000000e-04 0.000000000000000e+00 0.000000000000000e+00 
5.000000000000000e-04 0.000000000000000e+00 0.000000000000000e+00 
5.000000000000000e-04 0.000000000000000e+00 0.000000000000000e+00 
6.000000000000001e-04 0.000000000000000e+00 0.000000000000000e+00 
6.000000000000001e-04 0.000000000000000e+00 0.000000000000000e+00 
7.000000000000000e-04 0.000000000000000e+00 0.000000000000000e+00 
7.000000000000000e-04 0.000000000000000e+00 0.000000000000000e+00 
8.000000000000000e-04 0.000000000000000e+00 0.000000000000000e+00 
8.000000000000000e-04 0.000000000000000e+00 0.000000000000000e+00 
9.000000000000001e-04 0.000000000000000e+00 0.000000000000000e+00 
9.000000000000001e-04 0.000000000000000e+00 0.000000000000000e+00 
1.000000000000000e-03 0.000000000000000e+00 0.000000000000000e+00 
    </DataArray>
  </Points>

  <Cells>
    <DataArray type="Int32" Name="connectivity" format="ascii">
0 1 2 3 4 5 6 7 8 9 10 11 12 13 14 15 16 17 18 19     </DataArray>
    <DataArray type="Int32" Name="offsets" format="ascii">
2 4 6 8 10 12 14 16 18 20     </DataArray>
    <DataArray type="UInt8" Name="types" format="ascii">
3 3 3 3 3 3 3 3 3 3     </DataArray>
  </Cells>

  <PointData>
    <DataArray type="Float64" Name="phi_1" format="ascii">
4.976496200028133e+03 
5.051930882442892e+03 
5.051930882442892e+03 
5.276774297383411e+03 
5.276774297383411e+03 
5.646571746806026e+03 
5.646571746806026e+03 
6.153714537410348e+03 
6.153714537410348e+03 
6.787258032522152e+03 
6.787258032522152e+03 
7.532961577340090e+03 
7.532961577340090e+03 
8.373035828518839e+03 
8.373035828518839e+03 
9.287878525801878e+03 
9.287878525801878e+03 
1.025093179012931e+04 
1.025093179012931e+04 
1.125156268823250e+04 
    </DataArray>
    <DataArray type="Float64" Name="phiAnalytic_1" format="ascii">
5.133974605002105e+03 
5.209069358157391e+03 
5.209069358157391e+03 
5.432553126364049e+03 
5.432553126364049e+03 
5.799058177863698e+03 
5.799058177863698e+03 
6.299752244482254e+03 
6.299752244482254e+03 
6.922514082195267e+03 
6.922514082195267e+03 
7.652186702976662e+03 
7.652186702976662e+03 
8.470911902752307e+03 
8.470911902752307e+03 
9.358546281679819e+03 
9.358546281679819e+03 
1.029315368113429e+04 
1.029315368113429e+04 
1.125156268823250e+04 
    </DataArray>
    <DataArray type="Float64" Name="phi_2" format="ascii">
-1.770221885696872e+05 
-1.769847101266336e+05 
-1.769847101266336e+05 
-1.768762894236343e+05 
-1.768762894236343e+05 
-1.767077903839313e+05 
-1.767077903839313e+05 
-1.764940586571844e+05 
-1.764940586571844e+05 
-1.762507907487100e+05 
-1.762507907487100e+05 
-1.759922511468490e+05 
-1.759922511468490e+05 
-1.757301463220463e+05 
-1.757301463220463e+05 
-1.754734259669619e+05 
-1.754734259669619e+05 
-1.752285249243388e+05 
-1.752285249243388e+05 
-1.750000000000000e+05 
    </DataArray>
    <DataArray type="Float64" Name="phiAnalytic_2" format="ascii">
-1.769449481178923e+05 
-1.769089529930509e+05 
-1.769089529930509e+05 
-1.768048227634644e+05 
-1.768048227634644e+05 
-1.766429898142898e+05 
-1.766429898142898e+05 
-1.764377069431926e+05 
-1.764377069431926e+05 
-1.762040318792502e+05 
-1.762040318792502e+05 
-1.759556233684396e+05 
-1.759556233684396e+05 
-1.757036595498155e+05 
-1.757036595498155e+05 
-1.754566407618755e+05 
-1.754566407618755e+05 
-1.752206844098201e+05 
-1.752206844098201e+05 
-1.750000000000000e+05 
    </DataArray>
  </PointData>
  <CellData>
    <DataArray type="Float64" Name="Owner" format="ascii">
0.000000000000000e+00 
0.000000000000000e+00 
0.000000000000000e+00 
0.000000000000000e+00 
0.000000000000000e+00 
0.000000000000000e+00 
0.000000000000000e+00 
0.000000000000000e+00 
0.000000000000000e+00 
0.000000000000000e+00 
0.000000000000000e+00 
0.000000000000000e+00 
0.000000000000000e+00 
0.000000000000000e+00 
0.000000000000000e+00 
0.000000000000000e+00 
0.000000000000000e+00 
0.000000000000000e+00 
0.000000000000000e+00 
0.000000000000000e+00 
    </DataArray>
  </CellData>
</Piece>
</UnstructuredGrid>
</VTKFile>
