<?xml version="1.0" ?> 
<!-- 
# vtk DataFile Version 3.0
-->
<VTKFile type="UnstructuredGrid" version="0.1" compressor="vtkZLibDataCompressor" byte_order="LittleEndian">
<UnstructuredGrid>
<FieldData>
<DataArray type="Float32" Name="TIME" NumberOfTuples="1" format="ascii">855.6547619075</DataArray>
</FieldData>
<Piece NumberOfPoints="20" NumberOfCells="10" >
  <Points>
    <DataArray type="Float64" NumberOfComponents="3" format="ascii">
0.000000000000000e+00 0.000000000000000e+00 0.000000000000000e+00 
1.000000000000000e-04 0.000000000000000e+00 0.000000000000000e+00 
1.000000000000000e-04 0.000000000000000e+00 0.000000000000000e+00 
2.000000000000000e-04 0.000000000000000e+00 0.000000000000000e+00 
2.000000000000000e-04 0.000000000000000e+00 0.000000000000000e+00 
3.000000000000000e-04 0.000000000000000e+00 0.000000000000000e+00 
3.000000000000000e-04 0.000000000000000e+00 0.000000000000000e+00 
4.000000000000000e-04 0.000000000000000e+00 0.000000000000000e+00 
4.000000000000000e-04 0.000000000000000e+00 0.000000000000000e+00 
5.000000000000000e-04 0.000000000000000e+00 0.000000000000000e+00 
5.000000000000000e-04 0.000000000000000e+00 0.000000000000000e+00 
6.000000000000001e-04 0.000000000000000e+00 0.000000000000000e+00 
6.000000000000001e-04 0.000000000000000e+00 0.000000000000000e+00 
7.000000000000000e-04 0.000000000000000e+00 0.000000000000000e+00 
7.000000000000000e-04 0.000000000000000e+00 0.000000000000000e+00 
8.000000000000000e-04 0.000000000000000e+00 0.000000000000000e+00 
8.000000000000000e-04 0.000000000000000e+00 0.000000000000000e+00 
9.000000000000001e-04 0.000000000000000e+00 0.000000000000000e+00 
9.000000000000001e-04 0.000000000000000e+00 0.000000000000000e+00 
1.000000000000000e-03 0.000000000000000e+00 0.000000000000000e+00 
    </DataArray>
  </Points>

  <Cells>
    <DataArray type="Int32" Name="connectivity" format="ascii">
0 1 2 3 4 5 6 7 8 9 10 11 12 13 14 15 16 17 18 19     </DataArray>
    <DataArray type="Int32" Name="offsets" format="ascii">
2 4 6 8 10 12 14 16 18 20     </DataArray>
    <DataArray type="UInt8" Name="types" format="ascii">
3 3 3 3 3 3 3 3 3 3     </DataArray>
  </Cells>

  <PointData>
    <DataArray type="Float64" Name="phi_1" format="ascii">
8.674557471775295e+03 
8.706224380355861e+03 
8.706224380355861e+03 
8.800453671669002e+03 
8.800453671669002e+03 
8.954948109676121e+03 
8.954948109676121e+03 
9.165938482432270e+03 
9.165938482432270e+03 
9.428265855705962e+03 
9.428265855705962e+03 
9.735521251968215e+03 
9.735521251968215e+03 
1.008012810541057e+04 
1.008012810541057e+04 
1.045379187923693e+04 
1.045379187923693e+04 
1.084669026531575e+04 
1.084669026531575e+04 
1.125156268823250e+04 
    </DataArray>
    <DataArray type="Float64" Name="phiAnalytic_1" format="ascii">
8.825501385339869e+03 
8.855370171901459e+03 
8.855370171901459e+03 
8.944241074680658e+03 
8.944241074680658e+03 
9.089925829789610e+03 
9.089925829789610e+03 
9.288837241552803e+03 
9.288837241552803e+03 
9.536077501034453e+03 
9.536077501034453e+03 
9.825558775412796e+03 
9.825558775412796e+03 
1.015015310127468e+04 
1.015015310127468e+04 
1.050186789299912e+04 
1.050186789299912e+04 
1.087204274588043e+04 
1.087204274588043e+04 
1.125156268823250e+04 
    </DataArray>
    <DataArray type="Float64" Name="phi_2" format="ascii">
-1.756447732623836e+05 
-1.756357297424166e+05 
-1.756357297424166e+05 
-1.756090142775525e+05 
-1.756090142775525e+05 
-1.755658300964038e+05 
-1.755658300964038e+05 
-1.755080511021045e+05 
-1.755080511021045e+05 
-1.754380521467517e+05 
-1.754380521467517e+05 
-1.753585172533527e+05 
-1.753585172533527e+05 
-1.752722542131134e+05 
-1.752722542131134e+05 
-1.751820376656449e+05 
-1.751820376656449e+05 
-1.750904874974773e+05 
-1.750904874974773e+05 
-1.750000000000000e+05 
    </DataArray>
    <DataArray type="Float64" Name="phiAnalytic_2" format="ascii">
-1.756020099955821e+05 
-1.755936349119427e+05 
-1.755936349119427e+05 
-1.755688819306817e+05 
-1.755688819306817e+05 
-1.755288319509669e+05 
-1.755288319509669e+05 
-1.754751738611519e+05 
-1.754751738611519e+05 
-1.754100581219484e+05 
-1.754100581219484e+05 
-1.753359295537010e+05 
-1.753359295537010e+05 
-1.752553635695111e+05 
-1.752553635695111e+05 
-1.751709242163564e+05 
-1.751709242163564e+05 
-1.750850542722550e+05 
-1.750850542722550e+05 
-1.750000000000000e+05 
    </DataArray>
  </PointData>
  <CellData>
    <DataArray type="Float64" Name="Owner" format="ascii">
0.000000000000000e+00 
0.000000000000000e+00 
0.000000000000000e+00 
0.000000000000000e+00 
0.000000000000000e+00 
0.000000000000000e+00 
0.000000000000000e+00 
0.000000000000000e+00 
0.000000000000000e+00 
0.000000000000000e+00 
0.000000000000000e+00 
0.000000000000000e+00 
0.000000000000000e+00 
0.000000000000000e+00 
0.000000000000000e+00 
0.000000000000000e+00 
0.000000000000000e+00 
0.000000000000000e+00 
0.000000000000000e+00 
0.000000000000000e+00 
    </DataArray>
  </CellData>
</Piece>
</UnstructuredGrid>
</VTKFile>
