<?xml version="1.0" ?> 
<!-- 
# vtk DataFile Version 3.0
-->
<VTKFile type="UnstructuredGrid" version="0.1" compressor="vtkZLibDataCompressor" byte_order="LittleEndian">
<UnstructuredGrid>
<FieldData>
<DataArray type="Float32" Name="TIME" NumberOfTuples="1" format="ascii">372.023809525</DataArray>
</FieldData>
<Piece NumberOfPoints="20" NumberOfCells="10" >
  <Points>
    <DataArray type="Float64" NumberOfComponents="3" format="ascii">
0.000000000000000e+00 0.000000000000000e+00 0.000000000000000e+00 
1.000000000000000e-04 0.000000000000000e+00 0.000000000000000e+00 
1.000000000000000e-04 0.000000000000000e+00 0.000000000000000e+00 
2.000000000000000e-04 0.000000000000000e+00 0.000000000000000e+00 
2.000000000000000e-04 0.000000000000000e+00 0.000000000000000e+00 
3.000000000000000e-04 0.000000000000000e+00 0.000000000000000e+00 
3.000000000000000e-04 0.000000000000000e+00 0.000000000000000e+00 
4.000000000000000e-04 0.000000000000000e+00 0.000000000000000e+00 
4.000000000000000e-04 0.000000000000000e+00 0.000000000000000e+00 
5.000000000000000e-04 0.000000000000000e+00 0.000000000000000e+00 
5.000000000000000e-04 0.000000000000000e+00 0.000000000000000e+00 
6.000000000000001e-04 0.000000000000000e+00 0.000000000000000e+00 
6.000000000000001e-04 0.000000000000000e+00 0.000000000000000e+00 
7.000000000000000e-04 0.000000000000000e+00 0.000000000000000e+00 
7.000000000000000e-04 0.000000000000000e+00 0.000000000000000e+00 
8.000000000000000e-04 0.000000000000000e+00 0.000000000000000e+00 
8.000000000000000e-04 0.000000000000000e+00 0.000000000000000e+00 
9.000000000000001e-04 0.000000000000000e+00 0.000000000000000e+00 
9.000000000000001e-04 0.000000000000000e+00 0.000000000000000e+00 
1.000000000000000e-03 0.000000000000000e+00 0.000000000000000e+00 
    </DataArray>
  </Points>

  <Cells>
    <DataArray type="Int32" Name="connectivity" format="ascii">
0 1 2 3 4 5 6 7 8 9 10 11 12 13 14 15 16 17 18 19     </DataArray>
    <DataArray type="Int32" Name="offsets" format="ascii">
2 4 6 8 10 12 14 16 18 20     </DataArray>
    <DataArray type="UInt8" Name="types" format="ascii">
3 3 3 3 3 3 3 3 3 3     </DataArray>
  </Cells>

  <PointData>
    <DataArray type="Float64" Name="phi_1" format="ascii">
4.501056801986544e+03 
4.581329511949126e+03 
4.581329511949126e+03 
4.820795790107793e+03 
4.820795790107793e+03 
5.215263578935179e+03 
5.215263578935179e+03 
5.757379395753634e+03 
5.757379395753634e+03 
6.436242939042133e+03 
6.436242939042133e+03 
7.237271253879654e+03 
7.237271253879654e+03 
8.141752547244351e+03 
8.141752547244351e+03 
9.128719490034711e+03 
9.128719490034711e+03 
1.016895782339677e+04 
1.016895782339677e+04 
1.125156268823250e+04 
    </DataArray>
    <DataArray type="Float64" Name="phiAnalytic_1" format="ascii">
4.645732367714663e+03 
4.726614926733596e+03 
4.726614926733596e+03 
4.967368265604518e+03 
4.967368265604518e+03 
5.362334814236667e+03 
5.362334814236667e+03 
5.902174098493955e+03 
5.902174098493955e+03 
6.574008829404534e+03 
6.574008829404534e+03 
7.361651445515325e+03 
7.361651445515325e+03 
8.245925266109156e+03 
8.245925266109156e+03 
9.205089228388761e+03 
9.205089228388761e+03 
1.021536609608961e+04 
1.021536609608961e+04 
1.125156268823250e+04 
    </DataArray>
    <DataArray type="Float64" Name="phi_2" format="ascii">
-1.772711020400750e+05 
-1.772270273273059e+05 
-1.772270273273059e+05 
-1.771000787270481e+05 
-1.771000787270481e+05 
-1.769043324954206e+05 
-1.769043324954206e+05 
-1.766585302927025e+05 
-1.766585302927025e+05 
-1.763818185740541e+05 
-1.763818185740541e+05 
-1.760909314693165e+05 
-1.760909314693165e+05 
-1.757990524116615e+05 
-1.757990524116615e+05 
-1.755158546933640e+05 
-1.755158546933640e+05 
-1.752479945844719e+05 
-1.752479945844719e+05 
-1.750000000000000e+05 
    </DataArray>
    <DataArray type="Float64" Name="phiAnalytic_2" format="ascii">
-1.771926592575711e+05 
-1.771498741999224e+05 
-1.771498741999224e+05 
-1.770267242612542e+05 
-1.770267242612542e+05 
-1.768370715369983e+05 
-1.768370715369983e+05 
-1.765993000003481e+05 
-1.765993000003481e+05 
-1.763320757558056e+05 
-1.763320757558056e+05 
-1.760515714203272e+05 
-1.760515714203272e+05 
-1.757703868671268e+05 
-1.757703868671268e+05 
-1.754976242146768e+05 
-1.754976242146768e+05 
-1.752394885242391e+05 
-1.752394885242391e+05 
-1.750000000000000e+05 
    </DataArray>
  </PointData>
  <CellData>
    <DataArray type="Float64" Name="Owner" format="ascii">
0.000000000000000e+00 
0.000000000000000e+00 
0.000000000000000e+00 
0.000000000000000e+00 
0.000000000000000e+00 
0.000000000000000e+00 
0.000000000000000e+00 
0.000000000000000e+00 
0.000000000000000e+00 
0.000000000000000e+00 
0.000000000000000e+00 
0.000000000000000e+00 
0.000000000000000e+00 
0.000000000000000e+00 
0.000000000000000e+00 
0.000000000000000e+00 
0.000000000000000e+00 
0.000000000000000e+00 
0.000000000000000e+00 
0.000000000000000e+00 
    </DataArray>
  </CellData>
</Piece>
</UnstructuredGrid>
</VTKFile>
