<?xml version="1.0" ?> 
<!-- 
# vtk DataFile Version 3.0
-->
<VTKFile type="UnstructuredGrid" version="0.1" compressor="vtkZLibDataCompressor" byte_order="LittleEndian">
<UnstructuredGrid>
<FieldData>
<DataArray type="Float32" Name="TIME" NumberOfTuples="1" format="ascii">260.4166666675</DataArray>
</FieldData>
<Piece NumberOfPoints="20" NumberOfCells="10" >
  <Points>
    <DataArray type="Float64" NumberOfComponents="3" format="ascii">
0.000000000000000e+00 0.000000000000000e+00 0.000000000000000e+00 
1.000000000000000e-04 0.000000000000000e+00 0.000000000000000e+00 
1.000000000000000e-04 0.000000000000000e+00 0.000000000000000e+00 
2.000000000000000e-04 0.000000000000000e+00 0.000000000000000e+00 
2.000000000000000e-04 0.000000000000000e+00 0.000000000000000e+00 
3.000000000000000e-04 0.000000000000000e+00 0.000000000000000e+00 
3.000000000000000e-04 0.000000000000000e+00 0.000000000000000e+00 
4.000000000000000e-04 0.000000000000000e+00 0.000000000000000e+00 
4.000000000000000e-04 0.000000000000000e+00 0.000000000000000e+00 
5.000000000000000e-04 0.000000000000000e+00 0.000000000000000e+00 
5.000000000000000e-04 0.000000000000000e+00 0.000000000000000e+00 
6.000000000000001e-04 0.000000000000000e+00 0.000000000000000e+00 
6.000000000000001e-04 0.000000000000000e+00 0.000000000000000e+00 
7.000000000000000e-04 0.000000000000000e+00 0.000000000000000e+00 
7.000000000000000e-04 0.000000000000000e+00 0.000000000000000e+00 
8.000000000000000e-04 0.000000000000000e+00 0.000000000000000e+00 
8.000000000000000e-04 0.000000000000000e+00 0.000000000000000e+00 
9.000000000000001e-04 0.000000000000000e+00 0.000000000000000e+00 
9.000000000000001e-04 0.000000000000000e+00 0.000000000000000e+00 
1.000000000000000e-03 0.000000000000000e+00 0.000000000000000e+00 
    </DataArray>
  </Points>

  <Cells>
    <DataArray type="Int32" Name="connectivity" format="ascii">
0 1 2 3 4 5 6 7 8 9 10 11 12 13 14 15 16 17 18 19     </DataArray>
    <DataArray type="Int32" Name="offsets" format="ascii">
2 4 6 8 10 12 14 16 18 20     </DataArray>
    <DataArray type="UInt8" Name="types" format="ascii">
3 3 3 3 3 3 3 3 3 3     </DataArray>
  </Cells>

  <PointData>
    <DataArray type="Float64" Name="phi_1" format="ascii">
2.899551090202845e+03 
2.990752591605105e+03 
2.990752591605105e+03 
3.264602730543475e+03 
3.264602730543475e+03 
3.721217437804650e+03 
3.721217437804650e+03 
4.359025690917013e+03 
4.359025690917013e+03 
5.172777689587714e+03 
5.172777689587714e+03 
6.151758074850595e+03 
6.151758074850595e+03 
7.277536914203785e+03 
7.277536914203785e+03 
8.525533161023306e+03 
8.525533161023306e+03 
9.854923694901450e+03 
9.854923694901450e+03 
1.125156268823250e+04 
    </DataArray>
    <DataArray type="Float64" Name="phiAnalytic_1" format="ascii">
2.957681352131660e+03 
3.056215804266806e+03 
3.056215804266806e+03 
3.350172245588581e+03 
3.350172245588581e+03 
3.834480837975144e+03 
3.834480837975144e+03 
4.500301561169870e+03 
4.500301561169870e+03 
5.334569911584127e+03 
5.334569911584127e+03 
6.319592889320292e+03 
6.319592889320292e+03 
7.432863275980526e+03 
7.432863275980526e+03 
8.647232369306157e+03 
8.647232369306157e+03 
9.931520413520149e+03 
9.931520413520149e+03 
1.125156268823250e+04 
    </DataArray>
    <DataArray type="Float64" Name="phi_2" format="ascii">
-1.783612202195501e+05 
-1.782836687208785e+05 
-1.782836687208785e+05 
-1.780646430897672e+05 
-1.780646430897672e+05 
-1.777382236968652e+05 
-1.777382236968652e+05 
-1.773448080023051e+05 
-1.773448080023051e+05 
-1.769200405507149e+05 
-1.769200405507149e+05 
-1.764905732911951e+05 
-1.764905732911951e+05 
-1.760744571889436e+05 
-1.760744571889436e+05 
-1.756832178078995e+05 
-1.756832178078995e+05 
-1.753236974924240e+05 
-1.753236974924240e+05 
-1.750000000000000e+05 
    </DataArray>
    <DataArray type="Float64" Name="phiAnalytic_2" format="ascii">
-1.783119536456438e+05 
-1.782307181554477e+05 
-1.782307181554477e+05 
-1.780030775987625e+05 
-1.780030775987625e+05 
-1.776683817677980e+05 
-1.776683817677980e+05 
-1.772714971563070e+05 
-1.772714971563070e+05 
-1.768499396193696e+05 
-1.768499396193696e+05 
-1.764299123374688e+05 
-1.764299123374688e+05 
-1.760277081693718e+05 
-1.760277081693718e+05 
-1.756525930333743e+05 
-1.756525930333743e+05 
-1.753093403753781e+05 
-1.753093403753781e+05 
-1.750000000000000e+05 
    </DataArray>
  </PointData>
  <CellData>
    <DataArray type="Float64" Name="Owner" format="ascii">
0.000000000000000e+00 
0.000000000000000e+00 
0.000000000000000e+00 
0.000000000000000e+00 
0.000000000000000e+00 
0.000000000000000e+00 
0.000000000000000e+00 
0.000000000000000e+00 
0.000000000000000e+00 
0.000000000000000e+00 
0.000000000000000e+00 
0.000000000000000e+00 
0.000000000000000e+00 
0.000000000000000e+00 
0.000000000000000e+00 
0.000000000000000e+00 
0.000000000000000e+00 
0.000000000000000e+00 
0.000000000000000e+00 
0.000000000000000e+00 
    </DataArray>
  </CellData>
</Piece>
</UnstructuredGrid>
</VTKFile>
