<?xml version="1.0" ?> 
<!-- 
# vtk DataFile Version 3.0
-->
<VTKFile type="UnstructuredGrid" version="0.1" compressor="vtkZLibDataCompressor" byte_order="LittleEndian">
<UnstructuredGrid>
<FieldData>
<DataArray type="Float32" Name="TIME" NumberOfTuples="1" format="ascii">0</DataArray>
</FieldData>
<Piece NumberOfPoints="20" NumberOfCells="10" >
  <Points>
    <DataArray type="Float64" NumberOfComponents="3" format="ascii">
0.000000000000000e+00 0.000000000000000e+00 0.000000000000000e+00 
1.000000000000000e-04 0.000000000000000e+00 0.000000000000000e+00 
1.000000000000000e-04 0.000000000000000e+00 0.000000000000000e+00 
2.000000000000000e-04 0.000000000000000e+00 0.000000000000000e+00 
2.000000000000000e-04 0.000000000000000e+00 0.000000000000000e+00 
3.000000000000000e-04 0.000000000000000e+00 0.000000000000000e+00 
3.000000000000000e-04 0.000000000000000e+00 0.000000000000000e+00 
4.000000000000000e-04 0.000000000000000e+00 0.000000000000000e+00 
4.000000000000000e-04 0.000000000000000e+00 0.000000000000000e+00 
5.000000000000000e-04 0.000000000000000e+00 0.000000000000000e+00 
5.000000000000000e-04 0.000000000000000e+00 0.000000000000000e+00 
6.000000000000001e-04 0.000000000000000e+00 0.000000000000000e+00 
6.000000000000001e-04 0.000000000000000e+00 0.000000000000000e+00 
7.000000000000000e-04 0.000000000000000e+00 0.000000000000000e+00 
7.000000000000000e-04 0.000000000000000e+00 0.000000000000000e+00 
8.000000000000000e-04 0.000000000000000e+00 0.000000000000000e+00 
8.000000000000000e-04 0.000000000000000e+00 0.000000000000000e+00 
9.000000000000001e-04 0.000000000000000e+00 0.000000000000000e+00 
9.000000000000001e-04 0.000000000000000e+00 0.000000000000000e+00 
1.000000000000000e-03 0.000000000000000e+00 0.000000000000000e+00 
    </DataArray>
  </Points>

  <Cells>
    <DataArray type="Int32" Name="connectivity" format="ascii">
0 1 2 3 4 5 6 7 8 9 10 11 12 13 14 15 16 17 18 19     </DataArray>
    <DataArray type="Int32" Name="offsets" format="ascii">
2 4 6 8 10 12 14 16 18 20     </DataArray>
    <DataArray type="UInt8" Name="types" format="ascii">
3 3 3 3 3 3 3 3 3 3     </DataArray>
  </Cells>

  <PointData>
    <DataArray type="Float64" Name="phi_1" format="ascii">
2.649600000000000e+01 
2.649600000000000e+01 
2.649600000000000e+01 
2.649600000000000e+01 
2.649600000000000e+01 
2.649600000000000e+01 
2.649600000000000e+01 
2.649600000000000e+01 
2.649600000000000e+01 
2.649600000000000e+01 
2.649600000000000e+01 
2.649600000000000e+01 
2.649600000000000e+01 
2.649600000000000e+01 
2.649600000000000e+01 
2.649600000000000e+01 
2.649600000000000e+01 
2.649600000000000e+01 
2.649600000000000e+01 
2.649600000000000e+01 
    </DataArray>
    <DataArray type="Float64" Name="phiAnalytic_1" format="ascii">
2.649600000000000e+01 
2.649600000000000e+01 
2.649600000000000e+01 
2.649600000000000e+01 
2.649600000000000e+01 
2.649600000000000e+01 
2.649600000000000e+01 
2.649600000000000e+01 
2.649600000000000e+01 
2.649600000000000e+01 
2.649600000000000e+01 
2.649600000000000e+01 
2.649600000000000e+01 
2.649600000000000e+01 
2.649600000000000e+01 
2.649600000000000e+01 
2.649600000000000e+01 
2.649600000000000e+01 
2.649600000000000e+01 
2.649600000000000e+01 
    </DataArray>
    <DataArray type="Float64" Name="phi_2" format="ascii">
-1.900000000000000e+05 
-1.900000000000000e+05 
-1.900000000000000e+05 
-1.900000000000000e+05 
-1.900000000000000e+05 
-1.900000000000000e+05 
-1.900000000000000e+05 
-1.900000000000000e+05 
-1.900000000000000e+05 
-1.900000000000000e+05 
-1.900000000000000e+05 
-1.900000000000000e+05 
-1.900000000000000e+05 
-1.900000000000000e+05 
-1.900000000000000e+05 
-1.900000000000000e+05 
-1.900000000000000e+05 
-1.900000000000000e+05 
-1.900000000000000e+05 
-1.900000000000000e+05 
    </DataArray>
    <DataArray type="Float64" Name="phiAnalytic_2" format="ascii">
-1.900000000000000e+05 
-1.900000000000000e+05 
-1.900000000000000e+05 
-1.900000000000000e+05 
-1.900000000000000e+05 
-1.900000000000000e+05 
-1.900000000000000e+05 
-1.900000000000000e+05 
-1.900000000000000e+05 
-1.900000000000000e+05 
-1.900000000000000e+05 
-1.900000000000000e+05 
-1.900000000000000e+05 
-1.900000000000000e+05 
-1.900000000000000e+05 
-1.900000000000000e+05 
-1.900000000000000e+05 
-1.900000000000000e+05 
-1.900000000000000e+05 
-1.900000000000000e+05 
    </DataArray>
  </PointData>
  <CellData>
    <DataArray type="Float64" Name="Owner" format="ascii">
0.000000000000000e+00 
0.000000000000000e+00 
0.000000000000000e+00 
0.000000000000000e+00 
0.000000000000000e+00 
0.000000000000000e+00 
0.000000000000000e+00 
0.000000000000000e+00 
0.000000000000000e+00 
0.000000000000000e+00 
0.000000000000000e+00 
0.000000000000000e+00 
0.000000000000000e+00 
0.000000000000000e+00 
0.000000000000000e+00 
0.000000000000000e+00 
0.000000000000000e+00 
0.000000000000000e+00 
0.000000000000000e+00 
0.000000000000000e+00 
    </DataArray>
  </CellData>
</Piece>
</UnstructuredGrid>
</VTKFile>
