<?xml version="1.0" ?> 
<!-- 
# vtk DataFile Version 3.0
-->
<VTKFile type="UnstructuredGrid" version="0.1" compressor="vtkZLibDataCompressor" byte_order="LittleEndian">
<UnstructuredGrid>
<FieldData>
<DataArray type="Float32" Name="TIME" NumberOfTuples="1" format="ascii">446.42857143</DataArray>
</FieldData>
<Piece NumberOfPoints="20" NumberOfCells="10" >
  <Points>
    <DataArray type="Float64" NumberOfComponents="3" format="ascii">
0.000000000000000e+00 0.000000000000000e+00 0.000000000000000e+00 
1.000000000000000e-04 0.000000000000000e+00 0.000000000000000e+00 
1.000000000000000e-04 0.000000000000000e+00 0.000000000000000e+00 
2.000000000000000e-04 0.000000000000000e+00 0.000000000000000e+00 
2.000000000000000e-04 0.000000000000000e+00 0.000000000000000e+00 
3.000000000000000e-04 0.000000000000000e+00 0.000000000000000e+00 
3.000000000000000e-04 0.000000000000000e+00 0.000000000000000e+00 
4.000000000000000e-04 0.000000000000000e+00 0.000000000000000e+00 
4.000000000000000e-04 0.000000000000000e+00 0.000000000000000e+00 
5.000000000000000e-04 0.000000000000000e+00 0.000000000000000e+00 
5.000000000000000e-04 0.000000000000000e+00 0.000000000000000e+00 
6.000000000000001e-04 0.000000000000000e+00 0.000000000000000e+00 
6.000000000000001e-04 0.000000000000000e+00 0.000000000000000e+00 
7.000000000000000e-04 0.000000000000000e+00 0.000000000000000e+00 
7.000000000000000e-04 0.000000000000000e+00 0.000000000000000e+00 
8.000000000000000e-04 0.000000000000000e+00 0.000000000000000e+00 
8.000000000000000e-04 0.000000000000000e+00 0.000000000000000e+00 
9.000000000000001e-04 0.000000000000000e+00 0.000000000000000e+00 
9.000000000000001e-04 0.000000000000000e+00 0.000000000000000e+00 
1.000000000000000e-03 0.000000000000000e+00 0.000000000000000e+00 
    </DataArray>
  </Points>

  <Cells>
    <DataArray type="Int32" Name="connectivity" format="ascii">
0 1 2 3 4 5 6 7 8 9 10 11 12 13 14 15 16 17 18 19     </DataArray>
    <DataArray type="Int32" Name="offsets" format="ascii">
2 4 6 8 10 12 14 16 18 20     </DataArray>
    <DataArray type="UInt8" Name="types" format="ascii">
3 3 3 3 3 3 3 3 3 3     </DataArray>
  </Cells>

  <PointData>
    <DataArray type="Float64" Name="phi_1" format="ascii">
4.976017620326977e+03 
5.045652775634054e+03 
5.045652775634054e+03 
5.254216944962878e+03 
5.254216944962878e+03 
5.600501334084085e+03 
5.600501334084085e+03 
6.081906072066660e+03 
6.081906072066660e+03 
6.693581609883912e+03 
6.693581609883912e+03 
7.427461829405397e+03 
7.427461829405397e+03 
8.270667114335540e+03 
8.270667114335540e+03 
9.205921846510499e+03 
9.205921846510499e+03 
1.020466238152042e+04 
1.020466238152042e+04 
1.125156268823250e+04 
    </DataArray>
    <DataArray type="Float64" Name="phiAnalytic_1" format="ascii">
5.586969308879824e+03 
5.656598489377440e+03 
5.656598489377440e+03 
5.863795805201391e+03 
5.863795805201391e+03 
6.203526906509491e+03 
6.203526906509491e+03 
6.667522559818792e+03 
6.667522559818792e+03 
7.244461321195041e+03 
7.244461321195041e+03 
7.920225709310269e+03 
7.920225709310269e+03 
8.678230496699214e+03 
8.678230496699214e+03 
9.499819248852413e+03 
9.499819248852413e+03 
1.036472192895144e+04 
1.036472192895144e+04 
1.125156268823250e+04 
    </DataArray>
    <DataArray type="Float64" Name="phi_2" format="ascii">
-1.770224248573557e+05 
-1.769878173470337e+05 
-1.769878173470337e+05 
-1.768869914331550e+05 
-1.768869914331550e+05 
-1.767282216119210e+05 
-1.767282216119210e+05 
-1.765232678542254e+05 
-1.765232678542254e+05 
-1.762852924267522e+05 
-1.762852924267522e+05 
-1.760271766752369e+05 
-1.760271766752369e+05 
-1.757605153352605e+05 
-1.757605153352605e+05 
-1.754952363314601e+05 
-1.754952363314601e+05 
-1.752395096828436e+05 
-1.752395096828436e+05 
-1.750000000000000e+05 
    </DataArray>
    <DataArray type="Float64" Name="phiAnalytic_2" format="ascii">
-1.767353470050120e+05 
-1.767046449445793e+05 
-1.767046449445793e+05 
-1.766154709041672e+05 
-1.766154709041672e+05 
-1.764758617203714e+05 
-1.764758617203714e+05 
-1.762970635705796e+05 
-1.762970635705796e+05 
-1.760913491978661e+05 
-1.760913491978661e+05 
-1.758702819559572e+05 
-1.758702819559572e+05 
-1.756437229866886e+05 
-1.756437229866886e+05 
-1.754195010978076e+05 
-1.754195010978076e+05 
-1.752035088344842e+05 
-1.752035088344842e+05 
-1.750000000000000e+05 
    </DataArray>
  </PointData>
  <CellData>
    <DataArray type="Float64" Name="Owner" format="ascii">
0.000000000000000e+00 
0.000000000000000e+00 
0.000000000000000e+00 
0.000000000000000e+00 
0.000000000000000e+00 
0.000000000000000e+00 
0.000000000000000e+00 
0.000000000000000e+00 
0.000000000000000e+00 
0.000000000000000e+00 
0.000000000000000e+00 
0.000000000000000e+00 
0.000000000000000e+00 
0.000000000000000e+00 
0.000000000000000e+00 
0.000000000000000e+00 
0.000000000000000e+00 
0.000000000000000e+00 
0.000000000000000e+00 
0.000000000000000e+00 
    </DataArray>
  </CellData>
</Piece>
</UnstructuredGrid>
</VTKFile>
