<?xml version="1.0" ?> 
<!-- 
# vtk DataFile Version 3.0
-->
<VTKFile type="UnstructuredGrid" version="0.1" compressor="vtkZLibDataCompressor" byte_order="LittleEndian">
<UnstructuredGrid>
<FieldData>
<DataArray type="Float32" Name="TIME" NumberOfTuples="1" format="ascii">595.23809524</DataArray>
</FieldData>
<Piece NumberOfPoints="20" NumberOfCells="10" >
  <Points>
    <DataArray type="Float64" NumberOfComponents="3" format="ascii">
0.000000000000000e+00 0.000000000000000e+00 0.000000000000000e+00 
1.000000000000000e-04 0.000000000000000e+00 0.000000000000000e+00 
1.000000000000000e-04 0.000000000000000e+00 0.000000000000000e+00 
2.000000000000000e-04 0.000000000000000e+00 0.000000000000000e+00 
2.000000000000000e-04 0.000000000000000e+00 0.000000000000000e+00 
3.000000000000000e-04 0.000000000000000e+00 0.000000000000000e+00 
3.000000000000000e-04 0.000000000000000e+00 0.000000000000000e+00 
4.000000000000000e-04 0.000000000000000e+00 0.000000000000000e+00 
4.000000000000000e-04 0.000000000000000e+00 0.000000000000000e+00 
5.000000000000000e-04 0.000000000000000e+00 0.000000000000000e+00 
5.000000000000000e-04 0.000000000000000e+00 0.000000000000000e+00 
6.000000000000001e-04 0.000000000000000e+00 0.000000000000000e+00 
6.000000000000001e-04 0.000000000000000e+00 0.000000000000000e+00 
7.000000000000000e-04 0.000000000000000e+00 0.000000000000000e+00 
7.000000000000000e-04 0.000000000000000e+00 0.000000000000000e+00 
8.000000000000000e-04 0.000000000000000e+00 0.000000000000000e+00 
8.000000000000000e-04 0.000000000000000e+00 0.000000000000000e+00 
9.000000000000001e-04 0.000000000000000e+00 0.000000000000000e+00 
9.000000000000001e-04 0.000000000000000e+00 0.000000000000000e+00 
1.000000000000000e-03 0.000000000000000e+00 0.000000000000000e+00 
    </DataArray>
  </Points>

  <Cells>
    <DataArray type="Int32" Name="connectivity" format="ascii">
0 1 2 3 4 5 6 7 8 9 10 11 12 13 14 15 16 17 18 19     </DataArray>
    <DataArray type="Int32" Name="offsets" format="ascii">
2 4 6 8 10 12 14 16 18 20     </DataArray>
    <DataArray type="UInt8" Name="types" format="ascii">
3 3 3 3 3 3 3 3 3 3     </DataArray>
  </Cells>

  <PointData>
    <DataArray type="Float64" Name="phi_1" format="ascii">
6.416175216659523e+03 
6.473447203737105e+03 
6.473447203737105e+03 
6.644294738541163e+03 
6.644294738541163e+03 
6.925755302206701e+03 
6.925755302206701e+03 
7.312722345645575e+03 
7.312722345645575e+03 
7.797714237694773e+03 
7.797714237694773e+03 
8.370715789260899e+03 
8.370715789260899e+03 
9.018789354058612e+03 
9.018789354058612e+03 
9.726982516481119e+03 
9.726982516481119e+03 
1.047502418661689e+04 
1.047502418661689e+04 
1.125156268823250e+04 
    </DataArray>
    <DataArray type="Float64" Name="phiAnalytic_1" format="ascii">
7.089561312257831e+03 
7.140795517893386e+03 
7.140795517893386e+03 
7.293238090959258e+03 
7.293238090959258e+03 
7.543139596724196e+03 
7.543139596724196e+03 
7.884352615946833e+03 
7.884352615946833e+03 
8.308481810042707e+03 
8.308481810042707e+03 
8.805089234342382e+03 
8.805089234342382e+03 
9.361950150837694e+03 
9.361950150837694e+03 
9.965353303933882e+03 
9.965353303933882e+03 
1.060043842626792e+04 
1.060043842626792e+04 
1.125156268823250e+04 
    </DataArray>
    <DataArray type="Float64" Name="phi_2" format="ascii">
-1.763923204727135e+05 
-1.763702271968169e+05 
-1.763702271968169e+05 
-1.763054769423063e+05 
-1.763054769423063e+05 
-1.762023892225468e+05 
-1.762023892225468e+05 
-1.760673636666042e+05 
-1.760673636666042e+05 
-1.759079650832395e+05 
-1.759079650832395e+05 
-1.757320523301654e+05 
-1.757320523301654e+05 
-1.755471089535908e+05 
-1.755471089535908e+05 
-1.753598306301363e+05 
-1.753598306301363e+05 
-1.751758997594973e+05 
-1.751758997594973e+05 
-1.750000000000000e+05 
    </DataArray>
    <DataArray type="Float64" Name="phiAnalytic_2" format="ascii">
-1.761449257908696e+05 
-1.761270765018082e+05 
-1.761270765018082e+05 
-1.760747153084444e+05 
-1.760747153084444e+05 
-1.759912017673353e+05 
-1.759912017673353e+05 
-1.758815347790171e+05 
-1.758815347790171e+05 
-1.757516526299748e+05 
-1.757516526299748e+05 
-1.756077497978909e+05 
-1.756077497978909e+05 
-1.754557393353555e+05 
-1.754557393353555e+05 
-1.753009103378770e+05 
-1.753009103378770e+05 
-1.751477665298020e+05 
-1.751477665298020e+05 
-1.750000000000000e+05 
    </DataArray>
  </PointData>
  <CellData>
    <DataArray type="Float64" Name="Owner" format="ascii">
0.000000000000000e+00 
0.000000000000000e+00 
0.000000000000000e+00 
0.000000000000000e+00 
0.000000000000000e+00 
0.000000000000000e+00 
0.000000000000000e+00 
0.000000000000000e+00 
0.000000000000000e+00 
0.000000000000000e+00 
0.000000000000000e+00 
0.000000000000000e+00 
0.000000000000000e+00 
0.000000000000000e+00 
0.000000000000000e+00 
0.000000000000000e+00 
0.000000000000000e+00 
0.000000000000000e+00 
0.000000000000000e+00 
0.000000000000000e+00 
    </DataArray>
  </CellData>
</Piece>
</UnstructuredGrid>
</VTKFile>
