<?xml version="1.0" ?> 
<!-- 
# vtk DataFile Version 3.0
-->
<VTKFile type="UnstructuredGrid" version="0.1" compressor="vtkZLibDataCompressor" byte_order="LittleEndian">
<UnstructuredGrid>
<FieldData>
<DataArray type="Float32" Name="TIME" NumberOfTuples="1" format="ascii">1004.4642857175</DataArray>
</FieldData>
<Piece NumberOfPoints="20" NumberOfCells="10" >
  <Points>
    <DataArray type="Float64" NumberOfComponents="3" format="ascii">
0.000000000000000e+00 0.000000000000000e+00 0.000000000000000e+00 
1.000000000000000e-04 0.000000000000000e+00 0.000000000000000e+00 
1.000000000000000e-04 0.000000000000000e+00 0.000000000000000e+00 
2.000000000000000e-04 0.000000000000000e+00 0.000000000000000e+00 
2.000000000000000e-04 0.000000000000000e+00 0.000000000000000e+00 
3.000000000000000e-04 0.000000000000000e+00 0.000000000000000e+00 
3.000000000000000e-04 0.000000000000000e+00 0.000000000000000e+00 
4.000000000000000e-04 0.000000000000000e+00 0.000000000000000e+00 
4.000000000000000e-04 0.000000000000000e+00 0.000000000000000e+00 
5.000000000000000e-04 0.000000000000000e+00 0.000000000000000e+00 
5.000000000000000e-04 0.000000000000000e+00 0.000000000000000e+00 
6.000000000000001e-04 0.000000000000000e+00 0.000000000000000e+00 
6.000000000000001e-04 0.000000000000000e+00 0.000000000000000e+00 
7.000000000000000e-04 0.000000000000000e+00 0.000000000000000e+00 
7.000000000000000e-04 0.000000000000000e+00 0.000000000000000e+00 
8.000000000000000e-04 0.000000000000000e+00 0.000000000000000e+00 
8.000000000000000e-04 0.000000000000000e+00 0.000000000000000e+00 
9.000000000000001e-04 0.000000000000000e+00 0.000000000000000e+00 
9.000000000000001e-04 0.000000000000000e+00 0.000000000000000e+00 
1.000000000000000e-03 0.000000000000000e+00 0.000000000000000e+00 
    </DataArray>
  </Points>

  <Cells>
    <DataArray type="Int32" Name="connectivity" format="ascii">
0 1 2 3 4 5 6 7 8 9 10 11 12 13 14 15 16 17 18 19     </DataArray>
    <DataArray type="Int32" Name="offsets" format="ascii">
2 4 6 8 10 12 14 16 18 20     </DataArray>
    <DataArray type="UInt8" Name="types" format="ascii">
3 3 3 3 3 3 3 3 3 3     </DataArray>
  </Cells>

  <PointData>
    <DataArray type="Float64" Name="phi_1" format="ascii">
9.337783146837037e+03 
9.361314836658339e+03 
9.361314836658339e+03 
9.431334247655845e+03 
9.431334247655845e+03 
9.546127751488963e+03 
9.546127751488963e+03 
9.702885100478588e+03 
9.702885100478588e+03 
9.897763530181121e+03 
9.897763530181121e+03 
1.012599034996422e+04 
1.012599034996422e+04 
1.038193845875460e+04 
1.038193845875460e+04 
1.065941268618613e+04 
1.065941268618613e+04 
1.095123569296243e+04 
1.095123569296243e+04 
1.125156268823250e+04 
    </DataArray>
    <DataArray type="Float64" Name="phiAnalytic_1" format="ascii">
9.469370537233526e+03 
9.491312276633100e+03 
9.491312276633100e+03 
9.556597217119239e+03 
9.556597217119239e+03 
9.663617828825047e+03 
9.663617828825047e+03 
9.809738912005836e+03 
9.809738912005836e+03 
9.991362483771170e+03 
9.991362483771170e+03 
1.020401637168332e+04 
1.020401637168332e+04 
1.044246433290225e+04 
1.044246433290225e+04 
1.070083498750532e+04 
1.070083498750532e+04 
1.097276639129337e+04 
1.097276639129337e+04 
1.125156268823250e+04 
    </DataArray>
    <DataArray type="Float64" Name="phi_2" format="ascii">
-1.754621468815017e+05 
-1.754559027665732e+05 
-1.754559027665732e+05 
-1.754374162037729e+05 
-1.754374162037729e+05 
-1.754074051485183e+05 
-1.754074051485183e+05 
-1.753670046877906e+05 
-1.753670046877906e+05 
-1.753176848857247e+05 
-1.753176848857247e+05 
-1.752611533063854e+05 
-1.752611533063854e+05 
-1.751992543774552e+05 
-1.751992543774552e+05 
-1.751338764116381e+05 
-1.751338764116381e+05 
-1.750668717858550e+05 
-1.750668717858550e+05 
-1.750000000000000e+05 
    </DataArray>
    <DataArray type="Float64" Name="phiAnalytic_2" format="ascii">
-1.754274589403518e+05 
-1.754217218445390e+05 
-1.754217218445390e+05 
-1.754047299335733e+05 
-1.754047299335733e+05 
-1.753771248857171e+05 
-1.753771248857171e+05 
-1.753399238489424e+05 
-1.753399238489424e+05 
-1.752944491456704e+05 
-1.752944491456704e+05 
-1.752422441331886e+05 
-1.752422441331886e+05 
-1.751849854022311e+05 
-1.751849854022311e+05 
-1.751244001562035e+05 
-1.751244001562035e+05 
-1.750621950690542e+05 
-1.750621950690542e+05 
-1.750000000000000e+05 
    </DataArray>
  </PointData>
  <CellData>
    <DataArray type="Float64" Name="Owner" format="ascii">
0.000000000000000e+00 
0.000000000000000e+00 
0.000000000000000e+00 
0.000000000000000e+00 
0.000000000000000e+00 
0.000000000000000e+00 
0.000000000000000e+00 
0.000000000000000e+00 
0.000000000000000e+00 
0.000000000000000e+00 
0.000000000000000e+00 
0.000000000000000e+00 
0.000000000000000e+00 
0.000000000000000e+00 
0.000000000000000e+00 
0.000000000000000e+00 
0.000000000000000e+00 
0.000000000000000e+00 
0.000000000000000e+00 
0.000000000000000e+00 
    </DataArray>
  </CellData>
</Piece>
</UnstructuredGrid>
</VTKFile>
