<?xml version="1.0" ?> 
<!-- 
# vtk DataFile Version 3.0
-->
<VTKFile type="UnstructuredGrid" version="0.1" compressor="vtkZLibDataCompressor" byte_order="LittleEndian">
<UnstructuredGrid>
<FieldData>
<DataArray type="Float32" Name="TIME" NumberOfTuples="1" format="ascii">1078.8690476225</DataArray>
</FieldData>
<Piece NumberOfPoints="20" NumberOfCells="10" >
  <Points>
    <DataArray type="Float64" NumberOfComponents="3" format="ascii">
0.000000000000000e+00 0.000000000000000e+00 0.000000000000000e+00 
1.000000000000000e-04 0.000000000000000e+00 0.000000000000000e+00 
1.000000000000000e-04 0.000000000000000e+00 0.000000000000000e+00 
2.000000000000000e-04 0.000000000000000e+00 0.000000000000000e+00 
2.000000000000000e-04 0.000000000000000e+00 0.000000000000000e+00 
3.000000000000000e-04 0.000000000000000e+00 0.000000000000000e+00 
3.000000000000000e-04 0.000000000000000e+00 0.000000000000000e+00 
4.000000000000000e-04 0.000000000000000e+00 0.000000000000000e+00 
4.000000000000000e-04 0.000000000000000e+00 0.000000000000000e+00 
5.000000000000000e-04 0.000000000000000e+00 0.000000000000000e+00 
5.000000000000000e-04 0.000000000000000e+00 0.000000000000000e+00 
6.000000000000001e-04 0.000000000000000e+00 0.000000000000000e+00 
6.000000000000001e-04 0.000000000000000e+00 0.000000000000000e+00 
7.000000000000000e-04 0.000000000000000e+00 0.000000000000000e+00 
7.000000000000000e-04 0.000000000000000e+00 0.000000000000000e+00 
8.000000000000000e-04 0.000000000000000e+00 0.000000000000000e+00 
8.000000000000000e-04 0.000000000000000e+00 0.000000000000000e+00 
9.000000000000001e-04 0.000000000000000e+00 0.000000000000000e+00 
9.000000000000001e-04 0.000000000000000e+00 0.000000000000000e+00 
1.000000000000000e-03 0.000000000000000e+00 0.000000000000000e+00 
    </DataArray>
  </Points>

  <Cells>
    <DataArray type="Int32" Name="connectivity" format="ascii">
0 1 2 3 4 5 6 7 8 9 10 11 12 13 14 15 16 17 18 19     </DataArray>
    <DataArray type="Int32" Name="offsets" format="ascii">
2 4 6 8 10 12 14 16 18 20     </DataArray>
    <DataArray type="UInt8" Name="types" format="ascii">
3 3 3 3 3 3 3 3 3 3     </DataArray>
  </Cells>

  <PointData>
    <DataArray type="Float64" Name="phi_1" format="ascii">
9.602370070042612e+03 
9.622652704550272e+03 
9.622652704550272e+03 
9.683003803129421e+03 
9.683003803129421e+03 
9.781944618930476e+03 
9.781944618930476e+03 
9.917050392585277e+03 
9.917050392585277e+03 
1.008500642761784e+04 
1.008500642761784e+04 
1.028169586829725e+04 
1.028169586829725e+04 
1.050226972541878e+04 
1.050226972541878e+04 
1.074137680626561e+04 
1.074137680626561e+04 
1.099287254063061e+04 
1.099287254063061e+04 
1.125156268823250e+04 
    </DataArray>
    <DataArray type="Float64" Name="phiAnalytic_1" format="ascii">
9.724063933054033e+03 
9.742869976631115e+03 
9.742869976631115e+03 
9.798825040338485e+03 
9.798825040338485e+03 
9.890551325311677e+03 
9.890551325311677e+03 
1.001579022671553e+04 
1.001579022671553e+04 
1.017145794793353e+04 
1.017145794793353e+04 
1.035372143370495e+04 
1.035372143370495e+04 
1.055809275252116e+04 
1.055809275252116e+04 
1.077953960430477e+04 
1.077953960430477e+04 
1.101260923232543e+04 
1.101260923232543e+04 
1.125156268823250e+04 
    </DataArray>
    <DataArray type="Float64" Name="phi_2" format="ascii">
-1.753928858788033e+05 
-1.753876518371206e+05 
-1.753876518371206e+05 
-1.753721433267005e+05 
-1.753721433267005e+05 
-1.753469275268258e+05 
-1.753469275268258e+05 
-1.753129061539630e+05 
-1.753129061539630e+05 
-1.752712564908561e+05 
-1.752712564908561e+05 
-1.752233601121289e+05 
-1.752233601121289e+05 
-1.751707274619013e+05 
-1.751707274619013e+05 
-1.751149258749206e+05 
-1.751149258749206e+05 
-1.750575154660813e+05 
-1.750575154660813e+05 
-1.750000000000000e+05 
    </DataArray>
    <DataArray type="Float64" Name="phiAnalytic_2" format="ascii">
-1.753616681183725e+05 
-1.753568787874247e+05 
-1.753568787874247e+05 
-1.753426832061705e+05 
-1.753426832061705e+05 
-1.753195870442740e+05 
-1.753195870442740e+05 
-1.752883961118634e+05 
-1.752883961118634e+05 
-1.752501660603135e+05 
-1.752501660603135e+05 
-1.752061411017652e+05 
-1.752061411017652e+05 
-1.751576885233605e+05 
-1.751576885233605e+05 
-1.751062351675431e+05 
-1.751062351675431e+05 
-1.750532106145550e+05 
-1.750532106145550e+05 
-1.750000000000000e+05 
    </DataArray>
  </PointData>
  <CellData>
    <DataArray type="Float64" Name="Owner" format="ascii">
0.000000000000000e+00 
0.000000000000000e+00 
0.000000000000000e+00 
0.000000000000000e+00 
0.000000000000000e+00 
0.000000000000000e+00 
0.000000000000000e+00 
0.000000000000000e+00 
0.000000000000000e+00 
0.000000000000000e+00 
0.000000000000000e+00 
0.000000000000000e+00 
0.000000000000000e+00 
0.000000000000000e+00 
0.000000000000000e+00 
0.000000000000000e+00 
0.000000000000000e+00 
0.000000000000000e+00 
0.000000000000000e+00 
0.000000000000000e+00 
    </DataArray>
  </CellData>
</Piece>
</UnstructuredGrid>
</VTKFile>
