<?xml version="1.0" ?> 
<!-- 
# vtk DataFile Version 3.0
-->
<VTKFile type="UnstructuredGrid" version="0.1" compressor="vtkZLibDataCompressor" byte_order="LittleEndian">
<UnstructuredGrid>
<FieldData>
<DataArray type="Float32" Name="TIME" NumberOfTuples="1" format="ascii">186.0119047625</DataArray>
</FieldData>
<Piece NumberOfPoints="20" NumberOfCells="10" >
  <Points>
    <DataArray type="Float64" NumberOfComponents="3" format="ascii">
0.000000000000000e+00 0.000000000000000e+00 0.000000000000000e+00 
1.000000000000000e-04 0.000000000000000e+00 0.000000000000000e+00 
1.000000000000000e-04 0.000000000000000e+00 0.000000000000000e+00 
2.000000000000000e-04 0.000000000000000e+00 0.000000000000000e+00 
2.000000000000000e-04 0.000000000000000e+00 0.000000000000000e+00 
3.000000000000000e-04 0.000000000000000e+00 0.000000000000000e+00 
3.000000000000000e-04 0.000000000000000e+00 0.000000000000000e+00 
4.000000000000000e-04 0.000000000000000e+00 0.000000000000000e+00 
4.000000000000000e-04 0.000000000000000e+00 0.000000000000000e+00 
5.000000000000000e-04 0.000000000000000e+00 0.000000000000000e+00 
5.000000000000000e-04 0.000000000000000e+00 0.000000000000000e+00 
6.000000000000001e-04 0.000000000000000e+00 0.000000000000000e+00 
6.000000000000001e-04 0.000000000000000e+00 0.000000000000000e+00 
7.000000000000000e-04 0.000000000000000e+00 0.000000000000000e+00 
7.000000000000000e-04 0.000000000000000e+00 0.000000000000000e+00 
8.000000000000000e-04 0.000000000000000e+00 0.000000000000000e+00 
8.000000000000000e-04 0.000000000000000e+00 0.000000000000000e+00 
9.000000000000001e-04 0.000000000000000e+00 0.000000000000000e+00 
9.000000000000001e-04 0.000000000000000e+00 0.000000000000000e+00 
1.000000000000000e-03 0.000000000000000e+00 0.000000000000000e+00 
    </DataArray>
  </Points>

  <Cells>
    <DataArray type="Int32" Name="connectivity" format="ascii">
0 1 2 3 4 5 6 7 8 9 10 11 12 13 14 15 16 17 18 19     </DataArray>
    <DataArray type="Int32" Name="offsets" format="ascii">
2 4 6 8 10 12 14 16 18 20     </DataArray>
    <DataArray type="UInt8" Name="types" format="ascii">
3 3 3 3 3 3 3 3 3 3     </DataArray>
  </Cells>

  <PointData>
    <DataArray type="Float64" Name="phi_1" format="ascii">
1.747886395096822e+03 
1.834980384732691e+03 
1.834980384732691e+03 
2.099845900208924e+03 
2.099845900208924e+03 
2.552057062036595e+03 
2.552057062036595e+03 
3.204172146003152e+03 
3.204172146003152e+03 
4.067620634450471e+03 
4.067620634450471e+03 
5.147893203667189e+03 
5.147893203667189e+03 
6.437931575044805e+03 
6.437931575044805e+03 
7.916170918938977e+03 
7.916170918938977e+03 
9.528718160764254e+03 
9.528718160764254e+03 
1.125156268823250e+04 
    </DataArray>
    <DataArray type="Float64" Name="phiAnalytic_1" format="ascii">
1.679683184175121e+03 
1.783245603960087e+03 
1.783245603960087e+03 
2.094477163444121e+03 
2.094477163444121e+03 
2.614334089770251e+03 
2.614334089770251e+03 
3.342309172599299e+03 
3.342309172599299e+03 
4.273791642581494e+03 
4.273791642581494e+03 
5.397289611675811e+03 
5.397289611675811e+03 
6.692207081421128e+03 
6.692207081421128e+03 
8.127783108174755e+03 
8.127783108174755e+03 
9.663576971257287e+03 
9.663576971257287e+03 
1.125156268823250e+04 
    </DataArray>
    <DataArray type="Float64" Name="phi_2" format="ascii">
-1.796159588927662e+05 
-1.794934978774197e+05 
-1.794934978774197e+05 
-1.791551071019888e+05 
-1.791551071019888e+05 
-1.786679700439206e+05 
-1.786679700439206e+05 
-1.781020095991390e+05 
-1.781020095991390e+05 
-1.775102795152192e+05 
-1.775102795152192e+05 
-1.769273015670275e+05 
-1.769273015670275e+05 
-1.763742206163950e+05 
-1.763742206163950e+05 
-1.758639960286431e+05 
-1.758639960286431e+05 
-1.754042865739109e+05 
-1.754042865739109e+05 
-1.750000000000000e+05 
    </DataArray>
    <DataArray type="Float64" Name="phiAnalytic_2" format="ascii">
-1.797144705821353e+05 
-1.795661631273742e+05 
-1.795661631273742e+05 
-1.791673982719344e+05 
-1.791673982719344e+05 
-1.786178305513784e+05 
-1.786178305513784e+05 
-1.780089023872860e+05 
-1.780089023872860e+05 
-1.773995108170290e+05 
-1.773995108170290e+05 
-1.768209655985519e+05 
-1.768209655985519e+05 
-1.762879034251430e+05 
-1.762879034251430e+05 
-1.758061586193993e+05 
-1.758061586193993e+05 
-1.753771353661330e+05 
-1.753771353661330e+05 
-1.750000000000000e+05 
    </DataArray>
  </PointData>
  <CellData>
    <DataArray type="Float64" Name="Owner" format="ascii">
0.000000000000000e+00 
0.000000000000000e+00 
0.000000000000000e+00 
0.000000000000000e+00 
0.000000000000000e+00 
0.000000000000000e+00 
0.000000000000000e+00 
0.000000000000000e+00 
0.000000000000000e+00 
0.000000000000000e+00 
0.000000000000000e+00 
0.000000000000000e+00 
0.000000000000000e+00 
0.000000000000000e+00 
0.000000000000000e+00 
0.000000000000000e+00 
0.000000000000000e+00 
0.000000000000000e+00 
0.000000000000000e+00 
0.000000000000000e+00 
    </DataArray>
  </CellData>
</Piece>
</UnstructuredGrid>
</VTKFile>
