<?xml version="1.0" ?> 
<!-- 
# vtk DataFile Version 3.0
-->
<VTKFile type="UnstructuredGrid" version="0.1" compressor="vtkZLibDataCompressor" byte_order="LittleEndian">
<UnstructuredGrid>
<FieldData>
<DataArray type="Float32" Name="TIME" NumberOfTuples="1" format="ascii">148.80952381</DataArray>
</FieldData>
<Piece NumberOfPoints="20" NumberOfCells="10" >
  <Points>
    <DataArray type="Float64" NumberOfComponents="3" format="ascii">
0.000000000000000e+00 0.000000000000000e+00 0.000000000000000e+00 
1.000000000000000e-04 0.000000000000000e+00 0.000000000000000e+00 
1.000000000000000e-04 0.000000000000000e+00 0.000000000000000e+00 
2.000000000000000e-04 0.000000000000000e+00 0.000000000000000e+00 
2.000000000000000e-04 0.000000000000000e+00 0.000000000000000e+00 
3.000000000000000e-04 0.000000000000000e+00 0.000000000000000e+00 
3.000000000000000e-04 0.000000000000000e+00 0.000000000000000e+00 
4.000000000000000e-04 0.000000000000000e+00 0.000000000000000e+00 
4.000000000000000e-04 0.000000000000000e+00 0.000000000000000e+00 
5.000000000000000e-04 0.000000000000000e+00 0.000000000000000e+00 
5.000000000000000e-04 0.000000000000000e+00 0.000000000000000e+00 
6.000000000000001e-04 0.000000000000000e+00 0.000000000000000e+00 
6.000000000000001e-04 0.000000000000000e+00 0.000000000000000e+00 
7.000000000000000e-04 0.000000000000000e+00 0.000000000000000e+00 
7.000000000000000e-04 0.000000000000000e+00 0.000000000000000e+00 
8.000000000000000e-04 0.000000000000000e+00 0.000000000000000e+00 
8.000000000000000e-04 0.000000000000000e+00 0.000000000000000e+00 
9.000000000000001e-04 0.000000000000000e+00 0.000000000000000e+00 
9.000000000000001e-04 0.000000000000000e+00 0.000000000000000e+00 
1.000000000000000e-03 0.000000000000000e+00 0.000000000000000e+00 
    </DataArray>
  </Points>

  <Cells>
    <DataArray type="Int32" Name="connectivity" format="ascii">
0 1 2 3 4 5 6 7 8 9 10 11 12 13 14 15 16 17 18 19     </DataArray>
    <DataArray type="Int32" Name="offsets" format="ascii">
2 4 6 8 10 12 14 16 18 20     </DataArray>
    <DataArray type="UInt8" Name="types" format="ascii">
3 3 3 3 3 3 3 3 3 3     </DataArray>
  </Cells>

  <PointData>
    <DataArray type="Float64" Name="phi_1" format="ascii">
1.198080752977056e+03 
1.275176870755545e+03 
1.275176870755545e+03 
1.512456644469804e+03 
1.512456644469804e+03 
1.926699928240382e+03 
1.926699928240382e+03 
2.542399637148079e+03 
2.542399637148079e+03 
3.387301632258828e+03 
3.387301632258828e+03 
4.486036336605413e+03 
4.486036336605413e+03 
5.849532928512054e+03 
5.849532928512054e+03 
7.467584882498579e+03 
7.467584882498579e+03 
9.280050122975130e+03 
9.280050122975130e+03 
1.125156268823250e+04 
    </DataArray>
    <DataArray type="Float64" Name="phiAnalytic_1" format="ascii">
1.047982948847311e+03 
1.145270626645799e+03 
1.145270626645799e+03 
1.440782940109293e+03 
1.440782940109293e+03 
1.944137315159919e+03 
1.944137315159919e+03 
2.667186223640284e+03 
2.667186223640284e+03 
3.618626567107274e+03 
3.618626567107274e+03 
4.798086482754667e+03 
4.798086482754667e+03 
6.191031754469374e+03 
6.191031754469374e+03 
7.765774356221021e+03 
7.765774356221021e+03 
9.473496249337781e+03 
9.473496249337781e+03 
1.125156268823250e+04 
    </DataArray>
    <DataArray type="Float64" Name="phi_2" format="ascii">
-1.805522664441107e+05 
-1.803945250218515e+05 
-1.803945250218515e+05 
-1.799650426721205e+05 
-1.799650426721205e+05 
-1.793598116229374e+05 
-1.793598116229374e+05 
-1.786701446695958e+05 
-1.786701446695958e+05 
-1.779588766252416e+05 
-1.779588766252416e+05 
-1.772639058670659e+05 
-1.772639058670659e+05 
-1.766079135174052e+05 
-1.766079135174052e+05 
-1.760056707780486e+05 
-1.760056707780486e+05 
-1.754671300046696e+05 
-1.754671300046696e+05 
-1.750000000000000e+05 
    </DataArray>
    <DataArray type="Float64" Name="phiAnalytic_2" format="ascii">
-1.808838234472917e+05 
-1.806637696314531e+05 
-1.806637696314531e+05 
-1.800947673411489e+05 
-1.800947673411489e+05 
-1.793520346477933e+05 
-1.793520346477933e+05 
-1.785682178472555e+05 
-1.785682178472555e+05 
-1.778120033031926e+05 
-1.778120033031926e+05 
-1.771126723232674e+05 
-1.771126723232674e+05 
-1.764808595961125e+05 
-1.764808595961125e+05 
-1.759190986506096e+05 
-1.759190986506096e+05 
-1.754263791783241e+05 
-1.754263791783241e+05 
-1.750000000000000e+05 
    </DataArray>
  </PointData>
  <CellData>
    <DataArray type="Float64" Name="Owner" format="ascii">
0.000000000000000e+00 
0.000000000000000e+00 
0.000000000000000e+00 
0.000000000000000e+00 
0.000000000000000e+00 
0.000000000000000e+00 
0.000000000000000e+00 
0.000000000000000e+00 
0.000000000000000e+00 
0.000000000000000e+00 
0.000000000000000e+00 
0.000000000000000e+00 
0.000000000000000e+00 
0.000000000000000e+00 
0.000000000000000e+00 
0.000000000000000e+00 
0.000000000000000e+00 
0.000000000000000e+00 
0.000000000000000e+00 
0.000000000000000e+00 
    </DataArray>
  </CellData>
</Piece>
</UnstructuredGrid>
</VTKFile>
