<?xml version="1.0" ?> 
<!-- 
# vtk DataFile Version 3.0
-->
<VTKFile type="UnstructuredGrid" version="0.1" compressor="vtkZLibDataCompressor" byte_order="LittleEndian">
<UnstructuredGrid>
<FieldData>
<DataArray type="Float32" Name="TIME" NumberOfTuples="1" format="ascii">446.42857143</DataArray>
</FieldData>
<Piece NumberOfPoints="20" NumberOfCells="10" >
  <Points>
    <DataArray type="Float64" NumberOfComponents="3" format="ascii">
0.000000000000000e+00 0.000000000000000e+00 0.000000000000000e+00 
1.000000000000000e-04 0.000000000000000e+00 0.000000000000000e+00 
1.000000000000000e-04 0.000000000000000e+00 0.000000000000000e+00 
2.000000000000000e-04 0.000000000000000e+00 0.000000000000000e+00 
2.000000000000000e-04 0.000000000000000e+00 0.000000000000000e+00 
3.000000000000000e-04 0.000000000000000e+00 0.000000000000000e+00 
3.000000000000000e-04 0.000000000000000e+00 0.000000000000000e+00 
4.000000000000000e-04 0.000000000000000e+00 0.000000000000000e+00 
4.000000000000000e-04 0.000000000000000e+00 0.000000000000000e+00 
5.000000000000000e-04 0.000000000000000e+00 0.000000000000000e+00 
5.000000000000000e-04 0.000000000000000e+00 0.000000000000000e+00 
6.000000000000001e-04 0.000000000000000e+00 0.000000000000000e+00 
6.000000000000001e-04 0.000000000000000e+00 0.000000000000000e+00 
7.000000000000000e-04 0.000000000000000e+00 0.000000000000000e+00 
7.000000000000000e-04 0.000000000000000e+00 0.000000000000000e+00 
8.000000000000000e-04 0.000000000000000e+00 0.000000000000000e+00 
8.000000000000000e-04 0.000000000000000e+00 0.000000000000000e+00 
9.000000000000001e-04 0.000000000000000e+00 0.000000000000000e+00 
9.000000000000001e-04 0.000000000000000e+00 0.000000000000000e+00 
1.000000000000000e-03 0.000000000000000e+00 0.000000000000000e+00 
    </DataArray>
  </Points>

  <Cells>
    <DataArray type="Int32" Name="connectivity" format="ascii">
0 1 2 3 4 5 6 7 8 9 10 11 12 13 14 15 16 17 18 19     </DataArray>
    <DataArray type="Int32" Name="offsets" format="ascii">
2 4 6 8 10 12 14 16 18 20     </DataArray>
    <DataArray type="UInt8" Name="types" format="ascii">
3 3 3 3 3 3 3 3 3 3     </DataArray>
  </Cells>

  <PointData>
    <DataArray type="Float64" Name="phi_1" format="ascii">
5.421175081245657e+03 
5.491761290449411e+03 
5.491761290449411e+03 
5.702037321915522e+03 
5.702037321915522e+03 
6.047521670833566e+03 
6.047521670833566e+03 
6.520672375569862e+03 
6.520672375569862e+03 
7.110828711588360e+03 
7.110828711588360e+03 
7.804348780480220e+03 
7.804348780480220e+03 
8.584476221700907e+03 
8.584476221700907e+03 
9.432920556778456e+03 
9.432920556778456e+03 
1.032543162750911e+04 
1.032543162750911e+04 
1.125156268823250e+04 
    </DataArray>
    <DataArray type="Float64" Name="phiAnalytic_1" format="ascii">
5.586969308879824e+03 
5.656598489377440e+03 
5.656598489377440e+03 
5.863795805201391e+03 
5.863795805201391e+03 
6.203526906509491e+03 
6.203526906509491e+03 
6.667522559818792e+03 
6.667522559818792e+03 
7.244461321195041e+03 
7.244461321195041e+03 
7.920225709310269e+03 
7.920225709310269e+03 
8.678230496699214e+03 
8.678230496699214e+03 
9.499819248852413e+03 
9.499819248852413e+03 
1.036472192895144e+04 
1.036472192895144e+04 
1.125156268823250e+04 
    </DataArray>
    <DataArray type="Float64" Name="phi_2" format="ascii">
-1.768100311351523e+05 
-1.767778264986269e+05 
-1.767778264986269e+05 
-1.766843243869376e+05 
-1.766843243869376e+05 
-1.765380445956209e+05 
-1.765380445956209e+05 
-1.763508857624049e+05 
-1.763508857624049e+05 
-1.761358014125090e+05 
-1.761358014125090e+05 
-1.759049678488280e+05 
-1.759049678488280e+05 
-1.756687452061813e+05 
-1.756687452061813e+05 
-1.754353516612471e+05 
-1.754353516612471e+05 
-1.752109326663871e+05 
-1.752109326663871e+05 
-1.750000000000000e+05 
    </DataArray>
    <DataArray type="Float64" Name="phiAnalytic_2" format="ascii">
-1.767353470050120e+05 
-1.767046449445793e+05 
-1.767046449445793e+05 
-1.766154709041672e+05 
-1.766154709041672e+05 
-1.764758617203714e+05 
-1.764758617203714e+05 
-1.762970635705796e+05 
-1.762970635705796e+05 
-1.760913491978661e+05 
-1.760913491978661e+05 
-1.758702819559572e+05 
-1.758702819559572e+05 
-1.756437229866886e+05 
-1.756437229866886e+05 
-1.754195010978076e+05 
-1.754195010978076e+05 
-1.752035088344842e+05 
-1.752035088344842e+05 
-1.750000000000000e+05 
    </DataArray>
  </PointData>
  <CellData>
    <DataArray type="Float64" Name="Owner" format="ascii">
0.000000000000000e+00 
0.000000000000000e+00 
0.000000000000000e+00 
0.000000000000000e+00 
0.000000000000000e+00 
0.000000000000000e+00 
0.000000000000000e+00 
0.000000000000000e+00 
0.000000000000000e+00 
0.000000000000000e+00 
0.000000000000000e+00 
0.000000000000000e+00 
0.000000000000000e+00 
0.000000000000000e+00 
0.000000000000000e+00 
0.000000000000000e+00 
0.000000000000000e+00 
0.000000000000000e+00 
0.000000000000000e+00 
0.000000000000000e+00 
    </DataArray>
  </CellData>
</Piece>
</UnstructuredGrid>
</VTKFile>
