<?xml version="1.0" ?> 
<!-- 
# vtk DataFile Version 3.0
-->
<VTKFile type="UnstructuredGrid" version="0.1" compressor="vtkZLibDataCompressor" byte_order="LittleEndian">
<UnstructuredGrid>
<FieldData>
<DataArray type="Float32" Name="TIME" NumberOfTuples="1" format="ascii">334.8214285725</DataArray>
</FieldData>
<Piece NumberOfPoints="20" NumberOfCells="10" >
  <Points>
    <DataArray type="Float64" NumberOfComponents="3" format="ascii">
0.000000000000000e+00 0.000000000000000e+00 0.000000000000000e+00 
1.000000000000000e-04 0.000000000000000e+00 0.000000000000000e+00 
1.000000000000000e-04 0.000000000000000e+00 0.000000000000000e+00 
2.000000000000000e-04 0.000000000000000e+00 0.000000000000000e+00 
2.000000000000000e-04 0.000000000000000e+00 0.000000000000000e+00 
3.000000000000000e-04 0.000000000000000e+00 0.000000000000000e+00 
3.000000000000000e-04 0.000000000000000e+00 0.000000000000000e+00 
4.000000000000000e-04 0.000000000000000e+00 0.000000000000000e+00 
4.000000000000000e-04 0.000000000000000e+00 0.000000000000000e+00 
5.000000000000000e-04 0.000000000000000e+00 0.000000000000000e+00 
5.000000000000000e-04 0.000000000000000e+00 0.000000000000000e+00 
6.000000000000001e-04 0.000000000000000e+00 0.000000000000000e+00 
6.000000000000001e-04 0.000000000000000e+00 0.000000000000000e+00 
7.000000000000000e-04 0.000000000000000e+00 0.000000000000000e+00 
7.000000000000000e-04 0.000000000000000e+00 0.000000000000000e+00 
8.000000000000000e-04 0.000000000000000e+00 0.000000000000000e+00 
8.000000000000000e-04 0.000000000000000e+00 0.000000000000000e+00 
9.000000000000001e-04 0.000000000000000e+00 0.000000000000000e+00 
9.000000000000001e-04 0.000000000000000e+00 0.000000000000000e+00 
1.000000000000000e-03 0.000000000000000e+00 0.000000000000000e+00 
    </DataArray>
  </Points>

  <Cells>
    <DataArray type="Int32" Name="connectivity" format="ascii">
0 1 2 3 4 5 6 7 8 9 10 11 12 13 14 15 16 17 18 19     </DataArray>
    <DataArray type="Int32" Name="offsets" format="ascii">
2 4 6 8 10 12 14 16 18 20     </DataArray>
    <DataArray type="UInt8" Name="types" format="ascii">
3 3 3 3 3 3 3 3 3 3     </DataArray>
  </Cells>

  <PointData>
    <DataArray type="Float64" Name="phi_1" format="ascii">
3.994876973582947e+03 
4.079723930009941e+03 
4.079723930009941e+03 
4.333167368198321e+03 
4.333167368198321e+03 
4.751676854953586e+03 
4.751676854953586e+03 
5.328709519076177e+03 
5.328709519076177e+03 
6.053996661513571e+03 
6.053996661513571e+03 
6.913103458425105e+03 
6.913103458425105e+03 
7.886661819832196e+03 
7.886661819832196e+03 
8.952327010408517e+03 
8.952327010408517e+03 
1.007775795917941e+04 
1.007775795917941e+04 
1.125156268823250e+04 
    </DataArray>
    <DataArray type="Float64" Name="phiAnalytic_1" format="ascii">
4.120482049948017e+03 
4.207384432070258e+03 
4.207384432070258e+03 
4.466146418855545e+03 
4.466146418855545e+03 
4.890937998356375e+03 
4.890937998356375e+03 
5.472069818157351e+03 
5.472069818157351e+03 
6.196063838741000e+03 
6.196063838741000e+03 
7.045803988153860e+03 
7.045803988153860e+03 
8.000802608862862e+03 
8.000802608862862e+03 
9.037609928595273e+03 
9.037609928595273e+03 
1.013037718924428e+04 
1.013037718924428e+04 
1.125156268823250e+04 
    </DataArray>
    <DataArray type="Float64" Name="phi_2" format="ascii">
-1.775668322242541e+05 
-1.775143737028557e+05 
-1.775143737028557e+05 
-1.773640731695847e+05 
-1.773640731695847e+05 
-1.771344866442059e+05 
-1.771344866442059e+05 
-1.768495582562680e+05 
-1.768495582562680e+05 
-1.765327750496453e+05 
-1.765327750496453e+05 
-1.762037609651302e+05 
-1.762037609651302e+05 
-1.758772822324111e+05 
-1.758772822324111e+05 
-1.755636968418059e+05 
-1.755636968418059e+05 
-1.752697956480535e+05 
-1.752697956480535e+05 
-1.750000000000000e+05 
    </DataArray>
    <DataArray type="Float64" Name="phiAnalytic_2" format="ascii">
-1.774900651693336e+05 
-1.774383296847135e+05 
-1.774383296847135e+05 
-1.772903819652796e+05 
-1.772903819652796e+05 
-1.770651610063176e+05 
-1.770651610063176e+05 
-1.767868569594789e+05 
-1.767868569594789e+05 
-1.764788456248474e+05 
-1.764788456248474e+05 
-1.761602726651693e+05 
-1.761602726651693e+05 
-1.758451909556761e+05 
-1.758451909556761e+05 
-1.755431396888615e+05 
-1.755431396888615e+05 
-1.752601978537527e+05 
-1.752601978537527e+05 
-1.750000000000000e+05 
    </DataArray>
  </PointData>
  <CellData>
    <DataArray type="Float64" Name="Owner" format="ascii">
0.000000000000000e+00 
0.000000000000000e+00 
0.000000000000000e+00 
0.000000000000000e+00 
0.000000000000000e+00 
0.000000000000000e+00 
0.000000000000000e+00 
0.000000000000000e+00 
0.000000000000000e+00 
0.000000000000000e+00 
0.000000000000000e+00 
0.000000000000000e+00 
0.000000000000000e+00 
0.000000000000000e+00 
0.000000000000000e+00 
0.000000000000000e+00 
0.000000000000000e+00 
0.000000000000000e+00 
0.000000000000000e+00 
0.000000000000000e+00 
    </DataArray>
  </CellData>
</Piece>
</UnstructuredGrid>
</VTKFile>
