<?xml version="1.0" ?> 
<!-- 
# vtk DataFile Version 3.0
-->
<VTKFile type="UnstructuredGrid" version="0.1" compressor="vtkZLibDataCompressor" byte_order="LittleEndian">
<UnstructuredGrid>
<FieldData>
<DataArray type="Float32" Name="TIME" NumberOfTuples="1" format="ascii">632.4404761925</DataArray>
</FieldData>
<Piece NumberOfPoints="20" NumberOfCells="10" >
  <Points>
    <DataArray type="Float64" NumberOfComponents="3" format="ascii">
0.000000000000000e+00 0.000000000000000e+00 0.000000000000000e+00 
1.000000000000000e-04 0.000000000000000e+00 0.000000000000000e+00 
1.000000000000000e-04 0.000000000000000e+00 0.000000000000000e+00 
2.000000000000000e-04 0.000000000000000e+00 0.000000000000000e+00 
2.000000000000000e-04 0.000000000000000e+00 0.000000000000000e+00 
3.000000000000000e-04 0.000000000000000e+00 0.000000000000000e+00 
3.000000000000000e-04 0.000000000000000e+00 0.000000000000000e+00 
4.000000000000000e-04 0.000000000000000e+00 0.000000000000000e+00 
4.000000000000000e-04 0.000000000000000e+00 0.000000000000000e+00 
5.000000000000000e-04 0.000000000000000e+00 0.000000000000000e+00 
5.000000000000000e-04 0.000000000000000e+00 0.000000000000000e+00 
6.000000000000001e-04 0.000000000000000e+00 0.000000000000000e+00 
6.000000000000001e-04 0.000000000000000e+00 0.000000000000000e+00 
7.000000000000000e-04 0.000000000000000e+00 0.000000000000000e+00 
7.000000000000000e-04 0.000000000000000e+00 0.000000000000000e+00 
8.000000000000000e-04 0.000000000000000e+00 0.000000000000000e+00 
8.000000000000000e-04 0.000000000000000e+00 0.000000000000000e+00 
9.000000000000001e-04 0.000000000000000e+00 0.000000000000000e+00 
9.000000000000001e-04 0.000000000000000e+00 0.000000000000000e+00 
1.000000000000000e-03 0.000000000000000e+00 0.000000000000000e+00 
    </DataArray>
  </Points>

  <Cells>
    <DataArray type="Int32" Name="connectivity" format="ascii">
0 1 2 3 4 5 6 7 8 9 10 11 12 13 14 15 16 17 18 19     </DataArray>
    <DataArray type="Int32" Name="offsets" format="ascii">
2 4 6 8 10 12 14 16 18 20     </DataArray>
    <DataArray type="UInt8" Name="types" format="ascii">
3 3 3 3 3 3 3 3 3 3     </DataArray>
  </Cells>

  <PointData>
    <DataArray type="Float64" Name="phi_1" format="ascii">
7.225879929389640e+03 
7.275221902051622e+03 
7.275221902051622e+03 
7.422071673046467e+03 
7.422071673046467e+03 
7.662919604350187e+03 
7.662919604350187e+03 
7.991987660476765e+03 
7.991987660476765e+03 
8.401328921958591e+03 
8.401328921958591e+03 
8.881035669316429e+03 
8.881035669316429e+03 
9.419298458782599e+03 
9.419298458782599e+03 
1.000330987631591e+04 
1.000330987631591e+04 
1.061717861229762e+04 
1.061717861229762e+04 
1.125156268823250e+04 
    </DataArray>
    <DataArray type="Float64" Name="phiAnalytic_1" format="ascii">
7.398386811248383e+03 
7.445822334205324e+03 
7.445822334205324e+03 
7.586961638628963e+03 
7.586961638628963e+03 
7.818331508400690e+03 
7.818331508400690e+03 
8.134237839636057e+03 
8.134237839636057e+03 
8.526905196599422e+03 
8.526905196599422e+03 
8.986667565386266e+03 
8.986667565386266e+03 
9.502205761705751e+03 
9.502205761705751e+03 
1.006082577812808e+04 
1.006082577812808e+04 
1.064877129732148e+04 
1.064877129732148e+04 
1.125156268823250e+04 
    </DataArray>
    <DataArray type="Float64" Name="phi_2" format="ascii">
-1.760977184518423e+05 
-1.760808112120308e+05 
-1.760808112120308e+05 
-1.760311698672568e+05 
-1.760311698672568e+05 
-1.759518622869365e+05 
-1.759518622869365e+05 
-1.758474799036850e+05 
-1.758474799036850e+05 
-1.757235214914310e+05 
-1.757235214914310e+05 
-1.755857804585464e+05 
-1.755857804585464e+05 
-1.754398484639876e+05 
-1.754398484639876e+05 
-1.752907891002950e+05 
-1.752907891002950e+05 
-1.751429584609536e+05 
-1.751429584609536e+05 
-1.750000000000000e+05 
    </DataArray>
    <DataArray type="Float64" Name="phiAnalytic_2" format="ascii">
-1.760392326292401e+05 
-1.760233901576858e+05 
-1.760233901576858e+05 
-1.759768426805669e+05 
-1.759768426805669e+05 
-1.759023790302839e+05 
-1.759023790302839e+05 
-1.758041908304605e+05 
-1.758041908304605e+05 
-1.756873283059270e+05 
-1.756873283059270e+05 
-1.755571515946594e+05 
-1.755571515946594e+05 
-1.754188784553607e+05 
-1.754188784553607e+05 
-1.752772751966416e+05 
-1.752772751966416e+05 
-1.751364900021474e+05 
-1.751364900021474e+05 
-1.750000000000000e+05 
    </DataArray>
  </PointData>
  <CellData>
    <DataArray type="Float64" Name="Owner" format="ascii">
0.000000000000000e+00 
0.000000000000000e+00 
0.000000000000000e+00 
0.000000000000000e+00 
0.000000000000000e+00 
0.000000000000000e+00 
0.000000000000000e+00 
0.000000000000000e+00 
0.000000000000000e+00 
0.000000000000000e+00 
0.000000000000000e+00 
0.000000000000000e+00 
0.000000000000000e+00 
0.000000000000000e+00 
0.000000000000000e+00 
0.000000000000000e+00 
0.000000000000000e+00 
0.000000000000000e+00 
0.000000000000000e+00 
0.000000000000000e+00 
    </DataArray>
  </CellData>
</Piece>
</UnstructuredGrid>
</VTKFile>
