<?xml version="1.0" ?> 
<!-- 
# vtk DataFile Version 3.0
-->
<VTKFile type="UnstructuredGrid" version="0.1" compressor="vtkZLibDataCompressor" byte_order="LittleEndian">
<UnstructuredGrid>
<FieldData>
<DataArray type="Float32" Name="TIME" NumberOfTuples="1" format="ascii">669.642857145</DataArray>
</FieldData>
<Piece NumberOfPoints="20" NumberOfCells="10" >
  <Points>
    <DataArray type="Float64" NumberOfComponents="3" format="ascii">
0.000000000000000e+00 0.000000000000000e+00 0.000000000000000e+00 
1.000000000000000e-04 0.000000000000000e+00 0.000000000000000e+00 
1.000000000000000e-04 0.000000000000000e+00 0.000000000000000e+00 
2.000000000000000e-04 0.000000000000000e+00 0.000000000000000e+00 
2.000000000000000e-04 0.000000000000000e+00 0.000000000000000e+00 
3.000000000000000e-04 0.000000000000000e+00 0.000000000000000e+00 
3.000000000000000e-04 0.000000000000000e+00 0.000000000000000e+00 
4.000000000000000e-04 0.000000000000000e+00 0.000000000000000e+00 
4.000000000000000e-04 0.000000000000000e+00 0.000000000000000e+00 
5.000000000000000e-04 0.000000000000000e+00 0.000000000000000e+00 
5.000000000000000e-04 0.000000000000000e+00 0.000000000000000e+00 
6.000000000000001e-04 0.000000000000000e+00 0.000000000000000e+00 
6.000000000000001e-04 0.000000000000000e+00 0.000000000000000e+00 
7.000000000000000e-04 0.000000000000000e+00 0.000000000000000e+00 
7.000000000000000e-04 0.000000000000000e+00 0.000000000000000e+00 
8.000000000000000e-04 0.000000000000000e+00 0.000000000000000e+00 
8.000000000000000e-04 0.000000000000000e+00 0.000000000000000e+00 
9.000000000000001e-04 0.000000000000000e+00 0.000000000000000e+00 
9.000000000000001e-04 0.000000000000000e+00 0.000000000000000e+00 
1.000000000000000e-03 0.000000000000000e+00 0.000000000000000e+00 
    </DataArray>
  </Points>

  <Cells>
    <DataArray type="Int32" Name="connectivity" format="ascii">
0 1 2 3 4 5 6 7 8 9 10 11 12 13 14 15 16 17 18 19     </DataArray>
    <DataArray type="Int32" Name="offsets" format="ascii">
2 4 6 8 10 12 14 16 18 20     </DataArray>
    <DataArray type="UInt8" Name="types" format="ascii">
3 3 3 3 3 3 3 3 3 3     </DataArray>
  </Cells>

  <PointData>
    <DataArray type="Float64" Name="phi_1" format="ascii">
7.514144517134081e+03 
7.559987448736842e+03 
7.559987448736842e+03 
7.696416074999758e+03 
7.696416074999758e+03 
7.920149630797306e+03 
7.920149630797306e+03 
8.225792882202490e+03 
8.225792882202490e+03 
8.605936525549965e+03 
8.605936525549965e+03 
9.051354838517478e+03 
9.051354838517478e+03 
9.551074573397547e+03 
9.551074573397547e+03 
1.009317892217793e+04 
1.009317892217793e+04 
1.066301871975411e+04 
1.066301871975411e+04 
1.125156268823250e+04 
    </DataArray>
    <DataArray type="Float64" Name="phiAnalytic_1" format="ascii">
7.684310122104134e+03 
7.728227189077780e+03 
7.728227189077780e+03 
7.858897383530541e+03 
7.858897383530541e+03 
8.073104221740578e+03 
8.073104221740578e+03 
8.365574714320770e+03 
8.365574714320770e+03 
8.729108879070836e+03 
8.729108879070836e+03 
9.154756677043659e+03 
9.154756677043659e+03 
9.632038091671253e+03 
9.632038091671253e+03 
1.014920099738495e+04 
1.014920099738495e+04 
1.069351050829487e+04 
1.069351050829487e+04 
1.125156268823250e+04 
    </DataArray>
    <DataArray type="Float64" Name="phi_2" format="ascii">
-1.760007509712553e+05 
-1.759856434563831e+05 
-1.759856434563831e+05 
-1.759412249226629e+05 
-1.759412249226629e+05 
-1.758700742325804e+05 
-1.758700742325804e+05 
-1.757760851705510e+05 
-1.757760851705510e+05 
-1.756639793663423e+05 
-1.756639793663423e+05 
-1.755388080126259e+05 
-1.755388080126259e+05 
-1.754055316583728e+05 
-1.754055316583728e+05 
-1.752687267673823e+05 
-1.752687267673823e+05 
-1.751324088734381e+05 
-1.751324088734381e+05 
-1.750000000000000e+05 
    </DataArray>
    <DataArray type="Float64" Name="phiAnalytic_2" format="ascii">
-1.759452392158853e+05 
-1.759311126957852e+05 
-1.759311126957852e+05 
-1.758895507822309e+05 
-1.758895507822309e+05 
-1.758228909847253e+05 
-1.758228909847253e+05 
-1.757346773325149e+05 
-1.757346773325149e+05 
-1.756292327004462e+05 
-1.756292327004462e+05 
-1.755112153529499e+05 
-1.755112153529499e+05 
-1.753852386835424e+05 
-1.753852386835424e+05 
-1.752555960984179e+05 
-1.752555960984179e+05 
-1.751260974326803e+05 
-1.751260974326803e+05 
-1.750000000000000e+05 
    </DataArray>
  </PointData>
  <CellData>
    <DataArray type="Float64" Name="Owner" format="ascii">
0.000000000000000e+00 
0.000000000000000e+00 
0.000000000000000e+00 
0.000000000000000e+00 
0.000000000000000e+00 
0.000000000000000e+00 
0.000000000000000e+00 
0.000000000000000e+00 
0.000000000000000e+00 
0.000000000000000e+00 
0.000000000000000e+00 
0.000000000000000e+00 
0.000000000000000e+00 
0.000000000000000e+00 
0.000000000000000e+00 
0.000000000000000e+00 
0.000000000000000e+00 
0.000000000000000e+00 
0.000000000000000e+00 
0.000000000000000e+00 
    </DataArray>
  </CellData>
</Piece>
</UnstructuredGrid>
</VTKFile>
