<?xml version="1.0" ?> 
<!-- 
# vtk DataFile Version 3.0
-->
<VTKFile type="UnstructuredGrid" version="0.1" compressor="vtkZLibDataCompressor" byte_order="LittleEndian">
<UnstructuredGrid>
<FieldData>
<DataArray type="Float32" Name="TIME" NumberOfTuples="1" format="ascii">483.6309523825</DataArray>
</FieldData>
<Piece NumberOfPoints="20" NumberOfCells="10" >
  <Points>
    <DataArray type="Float64" NumberOfComponents="3" format="ascii">
0.000000000000000e+00 0.000000000000000e+00 0.000000000000000e+00 
1.000000000000000e-04 0.000000000000000e+00 0.000000000000000e+00 
1.000000000000000e-04 0.000000000000000e+00 0.000000000000000e+00 
2.000000000000000e-04 0.000000000000000e+00 0.000000000000000e+00 
2.000000000000000e-04 0.000000000000000e+00 0.000000000000000e+00 
3.000000000000000e-04 0.000000000000000e+00 0.000000000000000e+00 
3.000000000000000e-04 0.000000000000000e+00 0.000000000000000e+00 
4.000000000000000e-04 0.000000000000000e+00 0.000000000000000e+00 
4.000000000000000e-04 0.000000000000000e+00 0.000000000000000e+00 
5.000000000000000e-04 0.000000000000000e+00 0.000000000000000e+00 
5.000000000000000e-04 0.000000000000000e+00 0.000000000000000e+00 
6.000000000000001e-04 0.000000000000000e+00 0.000000000000000e+00 
6.000000000000001e-04 0.000000000000000e+00 0.000000000000000e+00 
7.000000000000000e-04 0.000000000000000e+00 0.000000000000000e+00 
7.000000000000000e-04 0.000000000000000e+00 0.000000000000000e+00 
8.000000000000000e-04 0.000000000000000e+00 0.000000000000000e+00 
8.000000000000000e-04 0.000000000000000e+00 0.000000000000000e+00 
9.000000000000001e-04 0.000000000000000e+00 0.000000000000000e+00 
9.000000000000001e-04 0.000000000000000e+00 0.000000000000000e+00 
1.000000000000000e-03 0.000000000000000e+00 0.000000000000000e+00 
    </DataArray>
  </Points>

  <Cells>
    <DataArray type="Int32" Name="connectivity" format="ascii">
0 1 2 3 4 5 6 7 8 9 10 11 12 13 14 15 16 17 18 19     </DataArray>
    <DataArray type="Int32" Name="offsets" format="ascii">
2 4 6 8 10 12 14 16 18 20     </DataArray>
    <DataArray type="UInt8" Name="types" format="ascii">
3 3 3 3 3 3 3 3 3 3     </DataArray>
  </Cells>

  <PointData>
    <DataArray type="Float64" Name="phi_1" format="ascii">
5.835971745991794e+03 
5.901841682797667e+03 
5.901841682797667e+03 
6.097996956132415e+03 
6.097996956132415e+03 
6.420063839506988e+03 
6.420063839506988e+03 
6.860746651788601e+03 
6.860746651788601e+03 
7.409843150734321e+03 
7.409843150734321e+03 
8.054432972891897e+03 
8.054432972891897e+03 
8.778819739752207e+03 
8.778819739752207e+03 
9.565955520370120e+03 
9.565955520370120e+03 
1.039362909903764e+04 
1.039362909903764e+04 
1.125156268823250e+04 
    </DataArray>
    <DataArray type="Float64" Name="phiAnalytic_1" format="ascii">
6.006839645138167e+03 
6.071355252013569e+03 
6.071355252013569e+03 
6.263325612398728e+03 
6.263325612398728e+03 
6.578057519484976e+03 
6.578057519484976e+03 
7.007849227223436e+03 
7.007849227223436e+03 
7.542169629932643e+03 
7.542169629932643e+03 
8.167906282971161e+03 
8.167906282971161e+03 
8.869678618476242e+03 
8.869678618476242e+03 
9.630210748677096e+03 
9.630210748677096e+03 
1.043075596702807e+04 
1.043075596702807e+04 
1.125156268823250e+04 
    </DataArray>
    <DataArray type="Float64" Name="phi_2" format="ascii">
-1.766272695244609e+05 
-1.765993444878885e+05 
-1.765993444878885e+05 
-1.765180215673803e+05 
-1.765180215673803e+05 
-1.763900806900725e+05 
-1.763900806900725e+05 
-1.762251663534166e+05 
-1.762251663534166e+05 
-1.760340436887003e+05 
-1.760340436887003e+05 
-1.758271331382062e+05 
-1.758271331382062e+05 
-1.756135876136115e+05 
-1.756135876136115e+05 
-1.754009107784329e+05 
-1.754009107784329e+05 
-1.751949130938500e+05 
-1.751949130938500e+05 
-1.750000000000000e+05 
    </DataArray>
    <DataArray type="Float64" Name="phiAnalytic_2" format="ascii">
-1.765557273515743e+05 
-1.765292459044864e+05 
-1.765292459044864e+05 
-1.764520816506372e+05 
-1.764520816506372e+05 
-1.763305496122549e+05 
-1.763305496122549e+05 
-1.761736618122658e+05 
-1.761736618122658e+05 
-1.759915205373621e+05 
-1.759915205373621e+05 
-1.757939519197456e+05 
-1.757939519197456e+05 
-1.755896328853435e+05 
-1.755896328853435e+05 
-1.753857089975506e+05 
-1.753857089975506e+05 
-1.751877662787404e+05 
-1.751877662787404e+05 
-1.750000000000000e+05 
    </DataArray>
  </PointData>
  <CellData>
    <DataArray type="Float64" Name="Owner" format="ascii">
0.000000000000000e+00 
0.000000000000000e+00 
0.000000000000000e+00 
0.000000000000000e+00 
0.000000000000000e+00 
0.000000000000000e+00 
0.000000000000000e+00 
0.000000000000000e+00 
0.000000000000000e+00 
0.000000000000000e+00 
0.000000000000000e+00 
0.000000000000000e+00 
0.000000000000000e+00 
0.000000000000000e+00 
0.000000000000000e+00 
0.000000000000000e+00 
0.000000000000000e+00 
0.000000000000000e+00 
0.000000000000000e+00 
0.000000000000000e+00 
    </DataArray>
  </CellData>
</Piece>
</UnstructuredGrid>
</VTKFile>
