<?xml version="1.0" ?> 
<!-- 
# vtk DataFile Version 3.0
-->
<VTKFile type="UnstructuredGrid" version="0.1" compressor="vtkZLibDataCompressor" byte_order="LittleEndian">
<UnstructuredGrid>
<FieldData>
<DataArray type="Float32" Name="TIME" NumberOfTuples="1" format="ascii">744.04761905</DataArray>
</FieldData>
<Piece NumberOfPoints="20" NumberOfCells="10" >
  <Points>
    <DataArray type="Float64" NumberOfComponents="3" format="ascii">
0.000000000000000e+00 0.000000000000000e+00 0.000000000000000e+00 
1.000000000000000e-04 0.000000000000000e+00 0.000000000000000e+00 
1.000000000000000e-04 0.000000000000000e+00 0.000000000000000e+00 
2.000000000000000e-04 0.000000000000000e+00 0.000000000000000e+00 
2.000000000000000e-04 0.000000000000000e+00 0.000000000000000e+00 
3.000000000000000e-04 0.000000000000000e+00 0.000000000000000e+00 
3.000000000000000e-04 0.000000000000000e+00 0.000000000000000e+00 
4.000000000000000e-04 0.000000000000000e+00 0.000000000000000e+00 
4.000000000000000e-04 0.000000000000000e+00 0.000000000000000e+00 
5.000000000000000e-04 0.000000000000000e+00 0.000000000000000e+00 
5.000000000000000e-04 0.000000000000000e+00 0.000000000000000e+00 
6.000000000000001e-04 0.000000000000000e+00 0.000000000000000e+00 
6.000000000000001e-04 0.000000000000000e+00 0.000000000000000e+00 
7.000000000000000e-04 0.000000000000000e+00 0.000000000000000e+00 
7.000000000000000e-04 0.000000000000000e+00 0.000000000000000e+00 
8.000000000000000e-04 0.000000000000000e+00 0.000000000000000e+00 
8.000000000000000e-04 0.000000000000000e+00 0.000000000000000e+00 
9.000000000000001e-04 0.000000000000000e+00 0.000000000000000e+00 
9.000000000000001e-04 0.000000000000000e+00 0.000000000000000e+00 
1.000000000000000e-03 0.000000000000000e+00 0.000000000000000e+00 
    </DataArray>
  </Points>

  <Cells>
    <DataArray type="Int32" Name="connectivity" format="ascii">
0 1 2 3 4 5 6 7 8 9 10 11 12 13 14 15 16 17 18 19     </DataArray>
    <DataArray type="Int32" Name="offsets" format="ascii">
2 4 6 8 10 12 14 16 18 20     </DataArray>
    <DataArray type="UInt8" Name="types" format="ascii">
3 3 3 3 3 3 3 3 3 3     </DataArray>
  </Cells>

  <PointData>
    <DataArray type="Float64" Name="phi_1" format="ascii">
8.030452707591078e+03 
8.070001488229020e+03 
8.070001488229020e+03 
8.187690631856604e+03 
8.187690631856604e+03 
8.380668022572003e+03 
8.380668022572003e+03 
8.644249631364948e+03 
8.644249631364948e+03 
8.972015019248431e+03 
8.972015019248431e+03 
9.355981286827384e+03 
9.355981286827384e+03 
9.786682505129993e+03 
9.786682505129993e+03 
1.025380599675782e+04 
1.025380599675782e+04 
1.074488279818600e+04 
1.074488279818600e+04 
1.125156268823250e+04 
    </DataArray>
    <DataArray type="Float64" Name="phiAnalytic_1" format="ascii">
8.194095979508009e+03 
8.231738036059824e+03 
8.231738036059824e+03 
8.343737427571778e+03 
8.343737427571778e+03 
8.527336619429325e+03 
8.527336619429325e+03 
8.778015163064410e+03 
8.778015163064410e+03 
9.089600923121769e+03 
9.089600923121769e+03 
9.454421968209881e+03 
9.454421968209881e+03 
9.863495404300958e+03 
9.863495404300958e+03 
1.030674851742666e+04 
1.030674851742666e+04 
1.077326679042281e+04 
1.077326679042281e+04 
1.125156268823250e+04 
    </DataArray>
    <DataArray type="Float64" Name="phi_2" format="ascii">
-1.758360233428766e+05 
-1.758238256070638e+05 
-1.758238256070638e+05 
-1.757878812490350e+05 
-1.757878812490350e+05 
-1.757300552925370e+05 
-1.757300552925370e+05 
-1.756532051678527e+05 
-1.756532051678527e+05 
-1.755608684046652e+05 
-1.755608684046652e+05 
-1.754569277962636e+05 
-1.754569277962636e+05 
-1.753453100495538e+05 
-1.753453100495538e+05 
-1.752297546706910e+05 
-1.752297546706910e+05 
-1.751136555720103e+05 
-1.751136555720103e+05 
-1.750000000000000e+05 
    </DataArray>
    <DataArray type="Float64" Name="phiAnalytic_2" format="ascii">
-1.757860165125259e+05 
-1.757746553832225e+05 
-1.757746553832225e+05 
-1.757411564399544e+05 
-1.757411564399544e+05 
-1.756872028920666e+05 
-1.756872028920666e+05 
-1.756153834644518e+05 
-1.756153834644518e+05 
-1.755289205544674e+05 
-1.755289205544674e+05 
-1.754313751538815e+05 
-1.754313751538815e+05 
-1.753263772252050e+05 
-1.753263772252050e+05 
-1.752174126326602e+05 
-1.752174126326602e+05 
-1.751076780581825e+05 
-1.751076780581825e+05 
-1.750000000000000e+05 
    </DataArray>
  </PointData>
  <CellData>
    <DataArray type="Float64" Name="Owner" format="ascii">
0.000000000000000e+00 
0.000000000000000e+00 
0.000000000000000e+00 
0.000000000000000e+00 
0.000000000000000e+00 
0.000000000000000e+00 
0.000000000000000e+00 
0.000000000000000e+00 
0.000000000000000e+00 
0.000000000000000e+00 
0.000000000000000e+00 
0.000000000000000e+00 
0.000000000000000e+00 
0.000000000000000e+00 
0.000000000000000e+00 
0.000000000000000e+00 
0.000000000000000e+00 
0.000000000000000e+00 
0.000000000000000e+00 
0.000000000000000e+00 
    </DataArray>
  </CellData>
</Piece>
</UnstructuredGrid>
</VTKFile>
