<?xml version="1.0" ?> 
<!-- 
# vtk DataFile Version 3.0
-->
<VTKFile type="UnstructuredGrid" version="0.1" compressor="vtkZLibDataCompressor" byte_order="LittleEndian">
<UnstructuredGrid>
<FieldData>
<DataArray type="Float32" Name="TIME" NumberOfTuples="1" format="ascii">37.2023809525</DataArray>
</FieldData>
<Piece NumberOfPoints="20" NumberOfCells="10" >
  <Points>
    <DataArray type="Float64" NumberOfComponents="3" format="ascii">
0.000000000000000e+00 0.000000000000000e+00 0.000000000000000e+00 
1.000000000000000e-04 0.000000000000000e+00 0.000000000000000e+00 
1.000000000000000e-04 0.000000000000000e+00 0.000000000000000e+00 
2.000000000000000e-04 0.000000000000000e+00 0.000000000000000e+00 
2.000000000000000e-04 0.000000000000000e+00 0.000000000000000e+00 
3.000000000000000e-04 0.000000000000000e+00 0.000000000000000e+00 
3.000000000000000e-04 0.000000000000000e+00 0.000000000000000e+00 
4.000000000000000e-04 0.000000000000000e+00 0.000000000000000e+00 
4.000000000000000e-04 0.000000000000000e+00 0.000000000000000e+00 
5.000000000000000e-04 0.000000000000000e+00 0.000000000000000e+00 
5.000000000000000e-04 0.000000000000000e+00 0.000000000000000e+00 
6.000000000000001e-04 0.000000000000000e+00 0.000000000000000e+00 
6.000000000000001e-04 0.000000000000000e+00 0.000000000000000e+00 
7.000000000000000e-04 0.000000000000000e+00 0.000000000000000e+00 
7.000000000000000e-04 0.000000000000000e+00 0.000000000000000e+00 
8.000000000000000e-04 0.000000000000000e+00 0.000000000000000e+00 
8.000000000000000e-04 0.000000000000000e+00 0.000000000000000e+00 
9.000000000000001e-04 0.000000000000000e+00 0.000000000000000e+00 
9.000000000000001e-04 0.000000000000000e+00 0.000000000000000e+00 
1.000000000000000e-03 0.000000000000000e+00 0.000000000000000e+00 
    </DataArray>
  </Points>

  <Cells>
    <DataArray type="Int32" Name="connectivity" format="ascii">
0 1 2 3 4 5 6 7 8 9 10 11 12 13 14 15 16 17 18 19     </DataArray>
    <DataArray type="Int32" Name="offsets" format="ascii">
2 4 6 8 10 12 14 16 18 20     </DataArray>
    <DataArray type="UInt8" Name="types" format="ascii">
3 3 3 3 3 3 3 3 3 3     </DataArray>
  </Cells>

  <PointData>
    <DataArray type="Float64" Name="phi_1" format="ascii">
1.076737868205010e+02 
1.208523584507768e+02 
1.208523584507768e+02 
1.648326376194087e+02 
1.648326376194087e+02 
2.543022965976262e+02 
2.543022965976262e+02 
4.187991005961119e+02 
4.187991005961119e+02 
7.123343193737087e+02 
7.123343193737087e+02 
1.231732828751551e+03 
1.231732828751551e+03 
2.146018549927202e+03 
2.146018549927202e+03 
3.764688214501098e+03 
3.764688214501098e+03 
6.574226375926934e+03 
6.574226375926934e+03 
1.125156268823250e+04 
    </DataArray>
    <DataArray type="Float64" Name="phiAnalytic_1" format="ascii">
2.791804720674210e+01 
3.018952140309494e+01 
3.018952140309494e+01 
4.194014867733779e+01 
4.194014867733779e+01 
8.386125374015269e+01 
8.386125374015269e+01 
2.105320154788078e+02 
2.105320154788078e+02 
5.372395187217038e+02 
5.372395187217038e+02 
1.256747409341381e+03 
1.256747409341381e+03 
2.609825444188999e+03 
2.609825444188999e+03 
4.782677954736495e+03 
4.782677954736495e+03 
7.762323859483870e+03 
7.762323859483870e+03 
1.125156268823250e+04 
    </DataArray>
    <DataArray type="Float64" Name="phi_2" format="ascii">
-1.865252296771194e+05 
-1.862282110277390e+05 
-1.862282110277390e+05 
-1.854381386455658e+05 
-1.854381386455658e+05 
-1.843473135318303e+05 
-1.843473135318303e+05 
-1.831016726386524e+05 
-1.831016726386524e+05 
-1.817800528411972e+05 
-1.817800528411972e+05 
-1.804206900829592e+05 
-1.804206900829592e+05 
-1.790413272899087e+05 
-1.790413272899087e+05 
-1.776526789409495e+05 
-1.776526789409495e+05 
-1.762547371243134e+05 
-1.762547371243134e+05 
-1.750000000000000e+05 
    </DataArray>
    <DataArray type="Float64" Name="phiAnalytic_2" format="ascii">
-1.898704084410389e+05 
-1.896765113496117e+05 
-1.896765113496117e+05 
-1.888616028432611e+05 
-1.888616028432611e+05 
-1.871439792111693e+05 
-1.871439792111693e+05 
-1.848622905746388e+05 
-1.848622905746388e+05 
-1.825401172447509e+05 
-1.825401172447509e+05 
-1.804335220455745e+05 
-1.804335220455745e+05 
-1.786221091801163e+05 
-1.786221091801163e+05 
-1.771206455881848e+05 
-1.771206455881848e+05 
-1.759202002867840e+05 
-1.759202002867840e+05 
-1.750000000000000e+05 
    </DataArray>
  </PointData>
  <CellData>
    <DataArray type="Float64" Name="Owner" format="ascii">
0.000000000000000e+00 
0.000000000000000e+00 
0.000000000000000e+00 
0.000000000000000e+00 
0.000000000000000e+00 
0.000000000000000e+00 
0.000000000000000e+00 
0.000000000000000e+00 
0.000000000000000e+00 
0.000000000000000e+00 
0.000000000000000e+00 
0.000000000000000e+00 
0.000000000000000e+00 
0.000000000000000e+00 
0.000000000000000e+00 
0.000000000000000e+00 
0.000000000000000e+00 
0.000000000000000e+00 
0.000000000000000e+00 
0.000000000000000e+00 
    </DataArray>
  </CellData>
</Piece>
</UnstructuredGrid>
</VTKFile>
