<?xml version="1.0" ?> 
<!-- 
# vtk DataFile Version 3.0
-->
<VTKFile type="UnstructuredGrid" version="0.1" compressor="vtkZLibDataCompressor" byte_order="LittleEndian">
<UnstructuredGrid>
<FieldData>
<DataArray type="Float32" Name="TIME" NumberOfTuples="1" format="ascii">1190.47619048</DataArray>
</FieldData>
<Piece NumberOfPoints="20" NumberOfCells="10" >
  <Points>
    <DataArray type="Float64" NumberOfComponents="3" format="ascii">
0.000000000000000e+00 0.000000000000000e+00 0.000000000000000e+00 
1.000000000000000e-04 0.000000000000000e+00 0.000000000000000e+00 
1.000000000000000e-04 0.000000000000000e+00 0.000000000000000e+00 
2.000000000000000e-04 0.000000000000000e+00 0.000000000000000e+00 
2.000000000000000e-04 0.000000000000000e+00 0.000000000000000e+00 
3.000000000000000e-04 0.000000000000000e+00 0.000000000000000e+00 
3.000000000000000e-04 0.000000000000000e+00 0.000000000000000e+00 
4.000000000000000e-04 0.000000000000000e+00 0.000000000000000e+00 
4.000000000000000e-04 0.000000000000000e+00 0.000000000000000e+00 
5.000000000000000e-04 0.000000000000000e+00 0.000000000000000e+00 
5.000000000000000e-04 0.000000000000000e+00 0.000000000000000e+00 
6.000000000000001e-04 0.000000000000000e+00 0.000000000000000e+00 
6.000000000000001e-04 0.000000000000000e+00 0.000000000000000e+00 
7.000000000000000e-04 0.000000000000000e+00 0.000000000000000e+00 
7.000000000000000e-04 0.000000000000000e+00 0.000000000000000e+00 
8.000000000000000e-04 0.000000000000000e+00 0.000000000000000e+00 
8.000000000000000e-04 0.000000000000000e+00 0.000000000000000e+00 
9.000000000000001e-04 0.000000000000000e+00 0.000000000000000e+00 
9.000000000000001e-04 0.000000000000000e+00 0.000000000000000e+00 
1.000000000000000e-03 0.000000000000000e+00 0.000000000000000e+00 
    </DataArray>
  </Points>

  <Cells>
    <DataArray type="Int32" Name="connectivity" format="ascii">
0 1 2 3 4 5 6 7 8 9 10 11 12 13 14 15 16 17 18 19     </DataArray>
    <DataArray type="Int32" Name="offsets" format="ascii">
2 4 6 8 10 12 14 16 18 20     </DataArray>
    <DataArray type="UInt8" Name="types" format="ascii">
3 3 3 3 3 3 3 3 3 3     </DataArray>
  </Cells>

  <PointData>
    <DataArray type="Float64" Name="phi_1" format="ascii">
9.932294037155116e+03 
9.948523047231522e+03 
9.948523047231522e+03 
9.996812019979890e+03 
9.996812019979890e+03 
1.007597625546208e+04 
1.007597625546208e+04 
1.018407337158957e+04 
1.018407337158957e+04 
1.031844891044613e+04 
1.031844891044613e+04 
1.047580581602716e+04 
1.047580581602716e+04 
1.065226543451132e+04 
1.065226543451132e+04 
1.084353437397957e+04 
1.084353437397957e+04 
1.104473789142658e+04 
1.104473789142658e+04 
1.125156268823250e+04 
    </DataArray>
    <DataArray type="Float64" Name="phiAnalytic_1" format="ascii">
1.003951316355870e+04 
1.005443550438381e+04 
1.005443550438381e+04 
1.009883508932640e+04 
1.009883508932640e+04 
1.017161865331477e+04 
1.017161865331477e+04 
1.027099402353888e+04 
1.027099402353888e+04 
1.039451424867316e+04 
1.039451424867316e+04 
1.053913785091787e+04 
1.053913785091787e+04 
1.070130371725851e+04 
1.070130371725851e+04 
1.087701878587578e+04 
1.087701878587578e+04 
1.106195636857810e+04 
1.106195636857810e+04 
1.125156268823250e+04 
    </DataArray>
    <DataArray type="Float64" Name="phi_2" format="ascii">
-1.753091474752476e+05 
-1.753050982818213e+05 
-1.753050982818213e+05 
-1.752930891977758e+05 
-1.752930891977758e+05 
-1.752735273134473e+05 
-1.752735273134473e+05 
-1.752470641456417e+05 
-1.752470641456417e+05 
-1.752145585679261e+05 
-1.752145585679261e+05 
-1.751770309836436e+05 
-1.751770309836436e+05 
-1.751356133522190e+05 
-1.751356133522190e+05 
-1.750914995911947e+05 
-1.750914995911947e+05 
-1.750458994101084e+05 
-1.750458994101084e+05 
-1.750000000000000e+05 
    </DataArray>
    <DataArray type="Float64" Name="phiAnalytic_2" format="ascii">
-1.752825318379367e+05 
-1.752788501533793e+05 
-1.752788501533793e+05 
-1.752679279840235e+05 
-1.752679279840235e+05 
-1.752501268961717e+05 
-1.752501268961717e+05 
-1.752260266982093e+05 
-1.752260266982093e+05 
-1.751963939463228e+05 
-1.751963939463228e+05 
-1.751621427368692e+05 
-1.751621427368692e+05 
-1.751242915786187e+05 
-1.751242915786187e+05 
-1.750839199977320e+05 
-1.750839199977320e+05 
-1.750421279205761e+05 
-1.750421279205761e+05 
-1.750000000000000e+05 
    </DataArray>
  </PointData>
  <CellData>
    <DataArray type="Float64" Name="Owner" format="ascii">
0.000000000000000e+00 
0.000000000000000e+00 
0.000000000000000e+00 
0.000000000000000e+00 
0.000000000000000e+00 
0.000000000000000e+00 
0.000000000000000e+00 
0.000000000000000e+00 
0.000000000000000e+00 
0.000000000000000e+00 
0.000000000000000e+00 
0.000000000000000e+00 
0.000000000000000e+00 
0.000000000000000e+00 
0.000000000000000e+00 
0.000000000000000e+00 
0.000000000000000e+00 
0.000000000000000e+00 
0.000000000000000e+00 
0.000000000000000e+00 
    </DataArray>
  </CellData>
</Piece>
</UnstructuredGrid>
</VTKFile>
