<?xml version="1.0" ?> 
<!-- 
# vtk DataFile Version 3.0
-->
<VTKFile type="UnstructuredGrid" version="0.1" compressor="vtkZLibDataCompressor" byte_order="LittleEndian">
<UnstructuredGrid>
<FieldData>
<DataArray type="Float32" Name="TIME" NumberOfTuples="1" format="ascii">1041.66666667</DataArray>
</FieldData>
<Piece NumberOfPoints="20" NumberOfCells="10" >
  <Points>
    <DataArray type="Float64" NumberOfComponents="3" format="ascii">
0.000000000000000e+00 0.000000000000000e+00 0.000000000000000e+00 
1.000000000000000e-04 0.000000000000000e+00 0.000000000000000e+00 
1.000000000000000e-04 0.000000000000000e+00 0.000000000000000e+00 
2.000000000000000e-04 0.000000000000000e+00 0.000000000000000e+00 
2.000000000000000e-04 0.000000000000000e+00 0.000000000000000e+00 
3.000000000000000e-04 0.000000000000000e+00 0.000000000000000e+00 
3.000000000000000e-04 0.000000000000000e+00 0.000000000000000e+00 
4.000000000000000e-04 0.000000000000000e+00 0.000000000000000e+00 
4.000000000000000e-04 0.000000000000000e+00 0.000000000000000e+00 
5.000000000000000e-04 0.000000000000000e+00 0.000000000000000e+00 
5.000000000000000e-04 0.000000000000000e+00 0.000000000000000e+00 
6.000000000000001e-04 0.000000000000000e+00 0.000000000000000e+00 
6.000000000000001e-04 0.000000000000000e+00 0.000000000000000e+00 
7.000000000000000e-04 0.000000000000000e+00 0.000000000000000e+00 
7.000000000000000e-04 0.000000000000000e+00 0.000000000000000e+00 
8.000000000000000e-04 0.000000000000000e+00 0.000000000000000e+00 
8.000000000000000e-04 0.000000000000000e+00 0.000000000000000e+00 
9.000000000000001e-04 0.000000000000000e+00 0.000000000000000e+00 
9.000000000000001e-04 0.000000000000000e+00 0.000000000000000e+00 
1.000000000000000e-03 0.000000000000000e+00 0.000000000000000e+00 
    </DataArray>
  </Points>

  <Cells>
    <DataArray type="Int32" Name="connectivity" format="ascii">
0 1 2 3 4 5 6 7 8 9 10 11 12 13 14 15 16 17 18 19     </DataArray>
    <DataArray type="Int32" Name="offsets" format="ascii">
2 4 6 8 10 12 14 16 18 20     </DataArray>
    <DataArray type="UInt8" Name="types" format="ascii">
3 3 3 3 3 3 3 3 3 3     </DataArray>
  </Cells>

  <PointData>
    <DataArray type="Float64" Name="phi_1" format="ascii">
9.474993135065790e+03 
9.496840139058850e+03 
9.496840139058850e+03 
9.561846342628243e+03 
9.561846342628243e+03 
9.668419807259317e+03 
9.668419807259317e+03 
9.813950025829152e+03 
9.813950025829152e+03 
9.994867907517051e+03 
9.994867907517051e+03 
1.020674067635154e+04 
1.020674067635154e+04 
1.044434473334257e+04 
1.044434473334257e+04 
1.070192210524557e+04 
1.070192210524557e+04 
1.097283262524007e+04 
1.097283262524007e+04 
1.125156268823250e+04 
    </DataArray>
    <DataArray type="Float64" Name="phiAnalytic_1" format="ascii">
9.601624415635026e+03 
9.621937892008877e+03 
9.621937892008877e+03 
9.682378136291201e+03 
9.682378136291201e+03 
9.781456910095352e+03 
9.781456910095352e+03 
9.916734566633779e+03 
9.916734566633779e+03 
1.008488012260322e+04 
1.008488012260322e+04 
1.028175327770812e+04 
1.028175327770812e+04 
1.050250636230366e+04 
1.050250636230366e+04 
1.074170370293252e+04 
1.074170370293252e+04 
1.099345546661853e+04 
1.099345546661853e+04 
1.125156268823250e+04 
    </DataArray>
    <DataArray type="Float64" Name="phi_2" format="ascii">
-1.754259878983550e+05 
-1.754202745573340e+05 
-1.754202745573340e+05 
-1.754033523102985e+05 
-1.754033523102985e+05 
-1.753758582524442e+05 
-1.753758582524442e+05 
-1.753388025716025e+05 
-1.753388025716025e+05 
-1.752934991085042e+05 
-1.752934991085042e+05 
-1.752414821680321e+05 
-1.752414821680321e+05 
-1.751844195214066e+05 
-1.751844195214066e+05 
-1.751240306546681e+05 
-1.751240306546681e+05 
-1.750620152183417e+05 
-1.750620152183417e+05 
-1.750000000000000e+05 
    </DataArray>
    <DataArray type="Float64" Name="phiAnalytic_2" format="ascii">
-1.753930780707487e+05 
-1.753878393484809e+05 
-1.753878393484809e+05 
-1.753723173355523e+05 
-1.753723173355523e+05 
-1.753470807387881e+05 
-1.753470807387881e+05 
-1.753130335409977e+05 
-1.753130335409977e+05 
-1.752713556823637e+05 
-1.752713556823637e+05 
-1.752234314006774e+05 
-1.752234314006774e+05 
-1.751707735191837e+05 
-1.751707735191837e+05 
-1.751149510628356e+05 
-1.751149510628356e+05 
-1.750575256734181e+05 
-1.750575256734181e+05 
-1.750000000000000e+05 
    </DataArray>
  </PointData>
  <CellData>
    <DataArray type="Float64" Name="Owner" format="ascii">
0.000000000000000e+00 
0.000000000000000e+00 
0.000000000000000e+00 
0.000000000000000e+00 
0.000000000000000e+00 
0.000000000000000e+00 
0.000000000000000e+00 
0.000000000000000e+00 
0.000000000000000e+00 
0.000000000000000e+00 
0.000000000000000e+00 
0.000000000000000e+00 
0.000000000000000e+00 
0.000000000000000e+00 
0.000000000000000e+00 
0.000000000000000e+00 
0.000000000000000e+00 
0.000000000000000e+00 
0.000000000000000e+00 
0.000000000000000e+00 
    </DataArray>
  </CellData>
</Piece>
</UnstructuredGrid>
</VTKFile>
