<?xml version="1.0" ?> 
<!-- 
# vtk DataFile Version 3.0
-->
<VTKFile type="UnstructuredGrid" version="0.1" compressor="vtkZLibDataCompressor" byte_order="LittleEndian">
<UnstructuredGrid>
<FieldData>
<DataArray type="Float32" Name="TIME" NumberOfTuples="1" format="ascii">1153.2738095275</DataArray>
</FieldData>
<Piece NumberOfPoints="20" NumberOfCells="10" >
  <Points>
    <DataArray type="Float64" NumberOfComponents="3" format="ascii">
0.000000000000000e+00 0.000000000000000e+00 0.000000000000000e+00 
1.000000000000000e-04 0.000000000000000e+00 0.000000000000000e+00 
1.000000000000000e-04 0.000000000000000e+00 0.000000000000000e+00 
2.000000000000000e-04 0.000000000000000e+00 0.000000000000000e+00 
2.000000000000000e-04 0.000000000000000e+00 0.000000000000000e+00 
3.000000000000000e-04 0.000000000000000e+00 0.000000000000000e+00 
3.000000000000000e-04 0.000000000000000e+00 0.000000000000000e+00 
4.000000000000000e-04 0.000000000000000e+00 0.000000000000000e+00 
4.000000000000000e-04 0.000000000000000e+00 0.000000000000000e+00 
5.000000000000000e-04 0.000000000000000e+00 0.000000000000000e+00 
5.000000000000000e-04 0.000000000000000e+00 0.000000000000000e+00 
6.000000000000001e-04 0.000000000000000e+00 0.000000000000000e+00 
6.000000000000001e-04 0.000000000000000e+00 0.000000000000000e+00 
7.000000000000000e-04 0.000000000000000e+00 0.000000000000000e+00 
7.000000000000000e-04 0.000000000000000e+00 0.000000000000000e+00 
8.000000000000000e-04 0.000000000000000e+00 0.000000000000000e+00 
8.000000000000000e-04 0.000000000000000e+00 0.000000000000000e+00 
9.000000000000001e-04 0.000000000000000e+00 0.000000000000000e+00 
9.000000000000001e-04 0.000000000000000e+00 0.000000000000000e+00 
1.000000000000000e-03 0.000000000000000e+00 0.000000000000000e+00 
    </DataArray>
  </Points>

  <Cells>
    <DataArray type="Int32" Name="connectivity" format="ascii">
0 1 2 3 4 5 6 7 8 9 10 11 12 13 14 15 16 17 18 19     </DataArray>
    <DataArray type="Int32" Name="offsets" format="ascii">
2 4 6 8 10 12 14 16 18 20     </DataArray>
    <DataArray type="UInt8" Name="types" format="ascii">
3 3 3 3 3 3 3 3 3 3     </DataArray>
  </Cells>

  <PointData>
    <DataArray type="Float64" Name="phi_1" format="ascii">
9.830390184421267e+03 
9.847871487257453e+03 
9.847871487257453e+03 
9.899886793728405e+03 
9.899886793728405e+03 
9.985160458700051e+03 
9.985160458700051e+03 
1.010160092688943e+04 
1.010160092688943e+04 
1.024634962195859e+04 
1.024634962195859e+04 
1.041585605012966e+04 
1.041585605012966e+04 
1.060594184789934e+04 
1.060594184789934e+04 
1.081198624772274e+04 
1.081198624772274e+04 
1.102872443075012e+04 
1.102872443075012e+04 
1.125156268823250e+04 
    </DataArray>
    <DataArray type="Float64" Name="phiAnalytic_1" format="ascii">
9.942359063402899e+03 
9.958477532314246e+03 
9.958477532314246e+03 
1.000643604889515e+04 
1.000643604889515e+04 
1.008505371542904e+04 
1.008505371542904e+04 
1.019239470422924e+04 
1.019239470422924e+04 
1.032581592410187e+04 
1.032581592410187e+04 
1.048203210198057e+04 
1.048203210198057e+04 
1.065719667721625e+04 
1.065719667721625e+04 
1.084699651664404e+04 
1.084699651664404e+04 
1.104675811823291e+04 
1.104675811823291e+04 
1.125156268823250e+04 
    </DataArray>
    <DataArray type="Float64" Name="phi_2" format="ascii">
-1.753347111874777e+05 
-1.753303044355876e+05 
-1.753303044355876e+05 
-1.753172386168837e+05 
-1.753172386168837e+05 
-1.752959672107395e+05 
-1.752959672107395e+05 
-1.752672145124909e+05 
-1.752672145124909e+05 
-1.752319325373923e+05 
-1.752319325373923e+05 
-1.751912481121411e+05 
-1.751912481121411e+05 
-1.751464057089099e+05 
-1.751464057089099e+05 
-1.750987113857915e+05 
-1.750987113857915e+05 
-1.750494813033949e+05 
-1.750494813033949e+05 
-1.750000000000000e+05 
    </DataArray>
    <DataArray type="Float64" Name="phiAnalytic_2" format="ascii">
-1.753066366199243e+05 
-1.753026212332199e+05 
-1.753026212332199e+05 
-1.752907122695188e+05 
-1.752907122695188e+05 
-1.752713130143791e+05 
-1.752713130143791e+05 
-1.752450689452861e+05 
-1.752450689452861e+05 
-1.752128310727244e+05 
-1.752128310727244e+05 
-1.751756106047111e+05 
-1.751756106047111e+05 
-1.751345295191765e+05 
-1.751345295191765e+05 
-1.750907713850780e+05 
-1.750907713850780e+05 
-1.750455359630653e+05 
-1.750455359630653e+05 
-1.750000000000000e+05 
    </DataArray>
  </PointData>
  <CellData>
    <DataArray type="Float64" Name="Owner" format="ascii">
0.000000000000000e+00 
0.000000000000000e+00 
0.000000000000000e+00 
0.000000000000000e+00 
0.000000000000000e+00 
0.000000000000000e+00 
0.000000000000000e+00 
0.000000000000000e+00 
0.000000000000000e+00 
0.000000000000000e+00 
0.000000000000000e+00 
0.000000000000000e+00 
0.000000000000000e+00 
0.000000000000000e+00 
0.000000000000000e+00 
0.000000000000000e+00 
0.000000000000000e+00 
0.000000000000000e+00 
0.000000000000000e+00 
0.000000000000000e+00 
    </DataArray>
  </CellData>
</Piece>
</UnstructuredGrid>
</VTKFile>
