<?xml version="1.0" ?> 
<!-- 
# vtk DataFile Version 3.0
-->
<VTKFile type="UnstructuredGrid" version="0.1" compressor="vtkZLibDataCompressor" byte_order="LittleEndian">
<UnstructuredGrid>
<FieldData>
<DataArray type="Float32" Name="TIME" NumberOfTuples="1" format="ascii">1116.071428575</DataArray>
</FieldData>
<Piece NumberOfPoints="20" NumberOfCells="10" >
  <Points>
    <DataArray type="Float64" NumberOfComponents="3" format="ascii">
0.000000000000000e+00 0.000000000000000e+00 0.000000000000000e+00 
1.000000000000000e-04 0.000000000000000e+00 0.000000000000000e+00 
1.000000000000000e-04 0.000000000000000e+00 0.000000000000000e+00 
2.000000000000000e-04 0.000000000000000e+00 0.000000000000000e+00 
2.000000000000000e-04 0.000000000000000e+00 0.000000000000000e+00 
3.000000000000000e-04 0.000000000000000e+00 0.000000000000000e+00 
3.000000000000000e-04 0.000000000000000e+00 0.000000000000000e+00 
4.000000000000000e-04 0.000000000000000e+00 0.000000000000000e+00 
4.000000000000000e-04 0.000000000000000e+00 0.000000000000000e+00 
5.000000000000000e-04 0.000000000000000e+00 0.000000000000000e+00 
5.000000000000000e-04 0.000000000000000e+00 0.000000000000000e+00 
6.000000000000001e-04 0.000000000000000e+00 0.000000000000000e+00 
6.000000000000001e-04 0.000000000000000e+00 0.000000000000000e+00 
7.000000000000000e-04 0.000000000000000e+00 0.000000000000000e+00 
7.000000000000000e-04 0.000000000000000e+00 0.000000000000000e+00 
8.000000000000000e-04 0.000000000000000e+00 0.000000000000000e+00 
8.000000000000000e-04 0.000000000000000e+00 0.000000000000000e+00 
9.000000000000001e-04 0.000000000000000e+00 0.000000000000000e+00 
9.000000000000001e-04 0.000000000000000e+00 0.000000000000000e+00 
1.000000000000000e-03 0.000000000000000e+00 0.000000000000000e+00 
    </DataArray>
  </Points>

  <Cells>
    <DataArray type="Int32" Name="connectivity" format="ascii">
0 1 2 3 4 5 6 7 8 9 10 11 12 13 14 15 16 17 18 19     </DataArray>
    <DataArray type="Int32" Name="offsets" format="ascii">
2 4 6 8 10 12 14 16 18 20     </DataArray>
    <DataArray type="UInt8" Name="types" format="ascii">
3 3 3 3 3 3 3 3 3 3     </DataArray>
  </Cells>

  <PointData>
    <DataArray type="Float64" Name="phi_1" format="ascii">
9.720617859967439e+03 
9.739447908196002e+03 
9.739447908196002e+03 
9.795476590958344e+03 
9.795476590958344e+03 
9.887330415101565e+03 
9.887330415101565e+03 
1.001275731050064e+04 
1.001275731050064e+04 
1.016867900734482e+04 
1.016867900734482e+04 
1.035127222790528e+04 
1.035127222790528e+04 
1.055603575685426e+04 
1.055603575685426e+04 
1.077799682729121e+04 
1.077799682729121e+04 
1.101146828634321e+04 
1.101146828634321e+04 
1.125156268823250e+04 
    </DataArray>
    <DataArray type="Float64" Name="phiAnalytic_1" format="ascii">
9.837417395270231e+03 
9.854827870047497e+03 
9.854827870047497e+03 
9.906630590799488e+03 
9.906630590799488e+03 
9.991550002871822e+03 
9.991550002871822e+03 
1.010749510886910e+04 
1.010749510886910e+04 
1.025161095587167e+04 
1.025161095587167e+04 
1.042034893376659e+04 
1.042034893376659e+04 
1.060955415373312e+04 
1.060955415373312e+04 
1.081456775535023e+04 
1.081456775535023e+04 
1.103034162319537e+04 
1.103034162319537e+04 
1.125156268823250e+04 
    </DataArray>
    <DataArray type="Float64" Name="phi_2" format="ascii">
-1.753625469886077e+05 
-1.753577467639706e+05 
-1.753577467639706e+05 
-1.753435187612326e+05 
-1.753435187612326e+05 
-1.753203694314903e+05 
-1.753203694314903e+05 
-1.752891058927590e+05 
-1.752891058927590e+05 
-1.752507856246971e+05 
-1.752507856246971e+05 
-1.752066551712040e+05 
-1.752066551712040e+05 
-1.751580845687409e+05 
-1.751580845687409e+05 
-1.751065038754943e+05 
-1.751065038754943e+05 
-1.750533457284060e+05 
-1.750533457284060e+05 
-1.750000000000000e+05 
    </DataArray>
    <DataArray type="Float64" Name="phiAnalytic_2" format="ascii">
-1.753329396322658e+05 
-1.753285564420220e+05 
-1.753285564420220e+05 
-1.753155604510611e+05 
-1.753155604510611e+05 
-1.752944026233300e+05 
-1.752944026233300e+05 
-1.752658032416331e+05 
-1.752658032416331e+05 
-1.752307090601887e+05 
-1.752307090601887e+05 
-1.751902406948529e+05 
-1.751902406948529e+05 
-1.751456358132864e+05 
-1.751456358132864e+05 
-1.750981932953268e+05 
-1.750981932953268e+05 
-1.750492224553520e+05 
-1.750492224553520e+05 
-1.750000000000000e+05 
    </DataArray>
  </PointData>
  <CellData>
    <DataArray type="Float64" Name="Owner" format="ascii">
0.000000000000000e+00 
0.000000000000000e+00 
0.000000000000000e+00 
0.000000000000000e+00 
0.000000000000000e+00 
0.000000000000000e+00 
0.000000000000000e+00 
0.000000000000000e+00 
0.000000000000000e+00 
0.000000000000000e+00 
0.000000000000000e+00 
0.000000000000000e+00 
0.000000000000000e+00 
0.000000000000000e+00 
0.000000000000000e+00 
0.000000000000000e+00 
0.000000000000000e+00 
0.000000000000000e+00 
0.000000000000000e+00 
0.000000000000000e+00 
    </DataArray>
  </CellData>
</Piece>
</UnstructuredGrid>
</VTKFile>
