<?xml version="1.0" ?> 
<!-- 
# vtk DataFile Version 3.0
-->
<VTKFile type="UnstructuredGrid" version="0.1" compressor="vtkZLibDataCompressor" byte_order="LittleEndian">
<UnstructuredGrid>
<FieldData>
<DataArray type="Float32" Name="TIME" NumberOfTuples="1" format="ascii">74.404761905</DataArray>
</FieldData>
<Piece NumberOfPoints="32" NumberOfCells="16" >
  <Points>
    <DataArray type="Float64" NumberOfComponents="3" format="ascii">
0.000000000000000e+00 0.000000000000000e+00 0.000000000000000e+00 
6.250000000000000e-05 0.000000000000000e+00 0.000000000000000e+00 
6.250000000000000e-05 0.000000000000000e+00 0.000000000000000e+00 
1.250000000000000e-04 0.000000000000000e+00 0.000000000000000e+00 
1.250000000000000e-04 0.000000000000000e+00 0.000000000000000e+00 
1.875000000000000e-04 0.000000000000000e+00 0.000000000000000e+00 
1.875000000000000e-04 0.000000000000000e+00 0.000000000000000e+00 
2.500000000000000e-04 0.000000000000000e+00 0.000000000000000e+00 
2.500000000000000e-04 0.000000000000000e+00 0.000000000000000e+00 
3.125000000000000e-04 0.000000000000000e+00 0.000000000000000e+00 
3.125000000000000e-04 0.000000000000000e+00 0.000000000000000e+00 
3.750000000000000e-04 0.000000000000000e+00 0.000000000000000e+00 
3.750000000000000e-04 0.000000000000000e+00 0.000000000000000e+00 
4.375000000000000e-04 0.000000000000000e+00 0.000000000000000e+00 
4.375000000000000e-04 0.000000000000000e+00 0.000000000000000e+00 
5.000000000000000e-04 0.000000000000000e+00 0.000000000000000e+00 
5.000000000000000e-04 0.000000000000000e+00 0.000000000000000e+00 
5.625000000000001e-04 0.000000000000000e+00 0.000000000000000e+00 
5.625000000000001e-04 0.000000000000000e+00 0.000000000000000e+00 
6.250000000000000e-04 0.000000000000000e+00 0.000000000000000e+00 
6.250000000000000e-04 0.000000000000000e+00 0.000000000000000e+00 
6.875000000000000e-04 0.000000000000000e+00 0.000000000000000e+00 
6.875000000000000e-04 0.000000000000000e+00 0.000000000000000e+00 
7.500000000000000e-04 0.000000000000000e+00 0.000000000000000e+00 
7.500000000000000e-04 0.000000000000000e+00 0.000000000000000e+00 
8.125000000000001e-04 0.000000000000000e+00 0.000000000000000e+00 
8.125000000000001e-04 0.000000000000000e+00 0.000000000000000e+00 
8.750000000000000e-04 0.000000000000000e+00 0.000000000000000e+00 
8.750000000000000e-04 0.000000000000000e+00 0.000000000000000e+00 
9.375000000000000e-04 0.000000000000000e+00 0.000000000000000e+00 
9.375000000000000e-04 0.000000000000000e+00 0.000000000000000e+00 
1.000000000000000e-03 0.000000000000000e+00 0.000000000000000e+00 
    </DataArray>
  </Points>

  <Cells>
    <DataArray type="Int32" Name="connectivity" format="ascii">
0 1 2 3 4 5 6 7 8 9 10 11 12 13 14 15 16 17 18 19 20 21 22 23 24 25 26 27 28 29 30 31     </DataArray>
    <DataArray type="Int32" Name="offsets" format="ascii">
2 4 6 8 10 12 14 16 18 20 22 24 26 28 30 32     </DataArray>
    <DataArray type="UInt8" Name="types" format="ascii">
3 3 3 3 3 3 3 3 3 3 3 3 3 3 3 3     </DataArray>
  </Cells>

  <PointData>
    <DataArray type="Float64" Name="phi_1" format="ascii">
4.404539834897414e+02 
4.533992924615014e+02 
4.533992924615014e+02 
4.930637351488390e+02 
4.930637351488390e+02 
5.619765064988900e+02 
5.619765064988900e+02 
6.645085438073413e+02 
6.645085438073413e+02 
8.071332844277401e+02 
8.071332844277401e+02 
9.988294119807393e+02 
9.988294119807393e+02 
1.251647303054240e+03 
1.251647303054240e+03 
1.581471604191172e+03 
1.581471604191172e+03 
2.009017924372324e+03 
2.009017924372324e+03 
2.561156812951513e+03 
2.561156812951513e+03 
3.272516925114989e+03 
3.272516925114989e+03 
4.188027298064629e+03 
4.188027298064629e+03 
5.364182178934802e+03 
5.364182178934802e+03 
6.879226268063257e+03 
6.879226268063257e+03 
8.809795515892965e+03 
8.809795515892965e+03 
1.125156268823250e+04 
    </DataArray>
    <DataArray type="Float64" Name="phiAnalytic_1" format="ascii">
1.315117742257514e+02 
1.461997933761157e+02 
1.461997933761157e+02 
1.925264706407881e+02 
1.925264706407881e+02 
2.772550656416060e+02 
2.772550656416060e+02 
4.115360547404593e+02 
4.115360547404593e+02 
6.105957458055359e+02 
6.105957458055359e+02 
8.930766897655899e+02 
8.930766897655899e+02 
1.279882716109055e+03 
1.279882716109055e+03 
1.792438056437733e+03 
1.792438056437733e+03 
2.450378930709256e+03 
2.450378930709256e+03 
3.268841573547144e+03 
3.268841573547144e+03 
4.255662598811151e+03 
4.255662598811151e+03 
5.408925187693835e+03 
5.408925187693835e+03 
6.715326736083989e+03 
6.715326736083989e+03 
8.149781786703470e+03 
8.149781786703470e+03 
9.676504348244154e+03 
9.676504348244154e+03 
1.125156268823250e+04 
    </DataArray>
    <DataArray type="Float64" Name="phi_2" format="ascii">
-1.830325619148852e+05 
-1.829600651651407e+05 
-1.829600651651407e+05 
-1.827503810178172e+05 
-1.827503810178172e+05 
-1.824238191957376e+05 
-1.824238191957376e+05 
-1.820062095842370e+05 
-1.820062095842370e+05 
-1.815224287405665e+05 
-1.815224287405665e+05 
-1.809928670828734e+05 
-1.809928670828734e+05 
-1.804326280571027e+05 
-1.804326280571027e+05 
-1.798522084692176e+05 
-1.798522084692176e+05 
-1.792586244573819e+05 
-1.792586244573819e+05 
-1.786564635541316e+05 
-1.786564635541316e+05 
-1.780486863755977e+05 
-1.780486863755977e+05 
-1.774372157237121e+05 
-1.774372157237121e+05 
-1.768232400270269e+05 
-1.768232400270269e+05 
-1.762077071673787e+05 
-1.762077071673787e+05 
-1.755906506192982e+05 
-1.755906506192982e+05 
-1.750000000000000e+05 
    </DataArray>
    <DataArray type="Float64" Name="phiAnalytic_2" format="ascii">
-1.860286774570010e+05 
-1.857662256715791e+05 
-1.857662256715791e+05 
-1.850839071157532e+05 
-1.850839071157532e+05 
-1.841798712723741e+05 
-1.841798712723741e+05 
-1.832008400113150e+05 
-1.832008400113150e+05 
-1.822228504940756e+05 
-1.822228504940756e+05 
-1.812803109058484e+05 
-1.812803109058484e+05 
-1.803883047078610e+05 
-1.803883047078610e+05 
-1.795534178852659e+05 
-1.795534178852659e+05 
-1.787783755753843e+05 
-1.787783755753843e+05 
-1.780639972994378e+05 
-1.780639972994378e+05 
-1.774100481119982e+05 
-1.774100481119982e+05 
-1.768156274667906e+05 
-1.768156274667906e+05 
-1.762793545750493e+05 
-1.762793545750493e+05 
-1.757994585044787e+05 
-1.757994585044787e+05 
-1.753738215606498e+05 
-1.753738215606498e+05 
-1.750000000000000e+05 
    </DataArray>
  </PointData>
  <CellData>
    <DataArray type="Float64" Name="Owner" format="ascii">
0.000000000000000e+00 
0.000000000000000e+00 
0.000000000000000e+00 
0.000000000000000e+00 
0.000000000000000e+00 
0.000000000000000e+00 
0.000000000000000e+00 
0.000000000000000e+00 
0.000000000000000e+00 
0.000000000000000e+00 
0.000000000000000e+00 
0.000000000000000e+00 
0.000000000000000e+00 
0.000000000000000e+00 
0.000000000000000e+00 
0.000000000000000e+00 
0.000000000000000e+00 
0.000000000000000e+00 
0.000000000000000e+00 
0.000000000000000e+00 
0.000000000000000e+00 
0.000000000000000e+00 
0.000000000000000e+00 
0.000000000000000e+00 
0.000000000000000e+00 
0.000000000000000e+00 
0.000000000000000e+00 
0.000000000000000e+00 
0.000000000000000e+00 
0.000000000000000e+00 
0.000000000000000e+00 
0.000000000000000e+00 
    </DataArray>
  </CellData>
</Piece>
</UnstructuredGrid>
</VTKFile>
