<?xml version="1.0" ?> 
<!-- 
# vtk DataFile Version 3.0
-->
<VTKFile type="UnstructuredGrid" version="0.1" compressor="vtkZLibDataCompressor" byte_order="LittleEndian">
<UnstructuredGrid>
<FieldData>
<DataArray type="Float32" Name="TIME" NumberOfTuples="1" format="ascii">744.04761905</DataArray>
</FieldData>
<Piece NumberOfPoints="32" NumberOfCells="16" >
  <Points>
    <DataArray type="Float64" NumberOfComponents="3" format="ascii">
0.000000000000000e+00 0.000000000000000e+00 0.000000000000000e+00 
6.250000000000000e-05 0.000000000000000e+00 0.000000000000000e+00 
6.250000000000000e-05 0.000000000000000e+00 0.000000000000000e+00 
1.250000000000000e-04 0.000000000000000e+00 0.000000000000000e+00 
1.250000000000000e-04 0.000000000000000e+00 0.000000000000000e+00 
1.875000000000000e-04 0.000000000000000e+00 0.000000000000000e+00 
1.875000000000000e-04 0.000000000000000e+00 0.000000000000000e+00 
2.500000000000000e-04 0.000000000000000e+00 0.000000000000000e+00 
2.500000000000000e-04 0.000000000000000e+00 0.000000000000000e+00 
3.125000000000000e-04 0.000000000000000e+00 0.000000000000000e+00 
3.125000000000000e-04 0.000000000000000e+00 0.000000000000000e+00 
3.750000000000000e-04 0.000000000000000e+00 0.000000000000000e+00 
3.750000000000000e-04 0.000000000000000e+00 0.000000000000000e+00 
4.375000000000000e-04 0.000000000000000e+00 0.000000000000000e+00 
4.375000000000000e-04 0.000000000000000e+00 0.000000000000000e+00 
5.000000000000000e-04 0.000000000000000e+00 0.000000000000000e+00 
5.000000000000000e-04 0.000000000000000e+00 0.000000000000000e+00 
5.625000000000001e-04 0.000000000000000e+00 0.000000000000000e+00 
5.625000000000001e-04 0.000000000000000e+00 0.000000000000000e+00 
6.250000000000000e-04 0.000000000000000e+00 0.000000000000000e+00 
6.250000000000000e-04 0.000000000000000e+00 0.000000000000000e+00 
6.875000000000000e-04 0.000000000000000e+00 0.000000000000000e+00 
6.875000000000000e-04 0.000000000000000e+00 0.000000000000000e+00 
7.500000000000000e-04 0.000000000000000e+00 0.000000000000000e+00 
7.500000000000000e-04 0.000000000000000e+00 0.000000000000000e+00 
8.125000000000001e-04 0.000000000000000e+00 0.000000000000000e+00 
8.125000000000001e-04 0.000000000000000e+00 0.000000000000000e+00 
8.750000000000000e-04 0.000000000000000e+00 0.000000000000000e+00 
8.750000000000000e-04 0.000000000000000e+00 0.000000000000000e+00 
9.375000000000000e-04 0.000000000000000e+00 0.000000000000000e+00 
9.375000000000000e-04 0.000000000000000e+00 0.000000000000000e+00 
1.000000000000000e-03 0.000000000000000e+00 0.000000000000000e+00 
    </DataArray>
  </Points>

  <Cells>
    <DataArray type="Int32" Name="connectivity" format="ascii">
0 1 2 3 4 5 6 7 8 9 10 11 12 13 14 15 16 17 18 19 20 21 22 23 24 25 26 27 28 29 30 31     </DataArray>
    <DataArray type="Int32" Name="offsets" format="ascii">
2 4 6 8 10 12 14 16 18 20 22 24 26 28 30 32     </DataArray>
    <DataArray type="UInt8" Name="types" format="ascii">
3 3 3 3 3 3 3 3 3 3 3 3 3 3 3 3     </DataArray>
  </Cells>

  <PointData>
    <DataArray type="Float64" Name="phi_1" format="ascii">
7.851976217981024e+03 
7.868299693390331e+03 
7.868299693390331e+03 
7.917116436025952e+03 
7.917116436025952e+03 
7.997966573645551e+03 
7.997966573645551e+03 
8.110087600601767e+03 
8.110087600601767e+03 
8.252420360550344e+03 
8.252420360550344e+03 
8.423617537862083e+03 
8.423617537862083e+03 
8.622054709608647e+03 
8.622054709608647e+03 
8.845844122186652e+03 
8.845844122186652e+03 
9.092850846103966e+03 
9.092850846103966e+03 
9.360712723309456e+03 
9.360712723309456e+03 
9.646858630491963e+03 
9.646858630491963e+03 
9.948545389598998e+03 
9.948545389598998e+03 
1.026283560582894e+04 
1.026283560582894e+04 
1.058680996272930e+04 
1.058680996272930e+04 
1.091690002021915e+04 
1.091690002021915e+04 
1.125156268823250e+04 
    </DataArray>
    <DataArray type="Float64" Name="phiAnalytic_1" format="ascii">
8.194095979508009e+03 
8.208818346432930e+03 
8.208818346432930e+03 
8.252843677489813e+03 
8.252843677489813e+03 
8.325748027576910e+03 
8.325748027576910e+03 
8.426829355336893e+03 
8.426829355336893e+03 
8.555114278395544e+03 
8.555114278395544e+03 
8.709367440153927e+03 
8.709367440153927e+03 
8.888103398565090e+03 
8.888103398565090e+03 
9.089600923121769e+03 
9.089600923121769e+03 
9.311919563110594e+03 
9.311919563110594e+03 
9.552918328272192e+03 
9.552918328272192e+03 
9.810276302559945e+03 
9.810276302559945e+03 
1.008151499291898e+04 
1.008151499291898e+04 
1.036402219810515e+04 
1.036402219810515e+04 
1.065507716771070e+04 
1.065507716771070e+04 
1.095187680892077e+04 
1.095187680892077e+04 
1.125156268823250e+04 
    </DataArray>
    <DataArray type="Float64" Name="phi_2" format="ascii">
-1.758917350832447e+05 
-1.758865836553068e+05 
-1.758865836553068e+05 
-1.758712416320334e+05 
-1.758712416320334e+05 
-1.758460398418509e+05 
-1.758460398418509e+05 
-1.758115104775410e+05 
-1.758115104775410e+05 
-1.757683604889378e+05 
-1.757683604889378e+05 
-1.757174382777578e+05 
-1.757174382777578e+05 
-1.756596968068721e+05 
-1.756596968068721e+05 
-1.755961561788750e+05 
-1.755961561788750e+05 
-1.755278683013801e+05 
-1.755278683013801e+05 
-1.754558855882183e+05 
-1.754558855882183e+05 
-1.753812348771002e+05 
-1.753812348771002e+05 
-1.753048970976646e+05 
-1.753048970976646e+05 
-1.752277924270325e+05 
-1.752277924270325e+05 
-1.751507710974595e+05 
-1.751507710974595e+05 
-1.750746067027506e+05 
-1.750746067027506e+05 
-1.750000000000000e+05 
    </DataArray>
    <DataArray type="Float64" Name="phiAnalytic_2" format="ascii">
-1.757860165125259e+05 
-1.757815668039673e+05 
-1.757815668039673e+05 
-1.757683079858072e+05 
-1.757683079858072e+05 
-1.757465066333645e+05 
-1.757465066333645e+05 
-1.757165929835492e+05 
-1.757165929835492e+05 
-1.756791413026963e+05 
-1.756791413026963e+05 
-1.756348450573812e+05 
-1.756348450573812e+05 
-1.755844890320016e+05 
-1.755844890320016e+05 
-1.755289205544674e+05 
-1.755289205544674e+05 
-1.754690217535231e+05 
-1.754690217535231e+05 
-1.754056843586116e+05 
-1.754056843586116e+05 
-1.753397880596521e+05 
-1.753397880596521e+05 
-1.752721829544433e+05 
-1.752721829544433e+05 
-1.752036761872362e+05 
-1.752036761872362e+05 
-1.751350225571977e+05 
-1.751350225571977e+05 
-1.750669186589410e+05 
-1.750669186589410e+05 
-1.750000000000000e+05 
    </DataArray>
  </PointData>
  <CellData>
    <DataArray type="Float64" Name="Owner" format="ascii">
0.000000000000000e+00 
0.000000000000000e+00 
0.000000000000000e+00 
0.000000000000000e+00 
0.000000000000000e+00 
0.000000000000000e+00 
0.000000000000000e+00 
0.000000000000000e+00 
0.000000000000000e+00 
0.000000000000000e+00 
0.000000000000000e+00 
0.000000000000000e+00 
0.000000000000000e+00 
0.000000000000000e+00 
0.000000000000000e+00 
0.000000000000000e+00 
0.000000000000000e+00 
0.000000000000000e+00 
0.000000000000000e+00 
0.000000000000000e+00 
0.000000000000000e+00 
0.000000000000000e+00 
0.000000000000000e+00 
0.000000000000000e+00 
0.000000000000000e+00 
0.000000000000000e+00 
0.000000000000000e+00 
0.000000000000000e+00 
0.000000000000000e+00 
0.000000000000000e+00 
0.000000000000000e+00 
0.000000000000000e+00 
    </DataArray>
  </CellData>
</Piece>
</UnstructuredGrid>
</VTKFile>
