<?xml version="1.0" ?> 
<!-- 
# vtk DataFile Version 3.0
-->
<VTKFile type="UnstructuredGrid" version="0.1" compressor="vtkZLibDataCompressor" byte_order="LittleEndian">
<UnstructuredGrid>
<FieldData>
<DataArray type="Float32" Name="TIME" NumberOfTuples="1" format="ascii">967.261904765</DataArray>
</FieldData>
<Piece NumberOfPoints="32" NumberOfCells="16" >
  <Points>
    <DataArray type="Float64" NumberOfComponents="3" format="ascii">
0.000000000000000e+00 0.000000000000000e+00 0.000000000000000e+00 
6.250000000000000e-05 0.000000000000000e+00 0.000000000000000e+00 
6.250000000000000e-05 0.000000000000000e+00 0.000000000000000e+00 
1.250000000000000e-04 0.000000000000000e+00 0.000000000000000e+00 
1.250000000000000e-04 0.000000000000000e+00 0.000000000000000e+00 
1.875000000000000e-04 0.000000000000000e+00 0.000000000000000e+00 
1.875000000000000e-04 0.000000000000000e+00 0.000000000000000e+00 
2.500000000000000e-04 0.000000000000000e+00 0.000000000000000e+00 
2.500000000000000e-04 0.000000000000000e+00 0.000000000000000e+00 
3.125000000000000e-04 0.000000000000000e+00 0.000000000000000e+00 
3.125000000000000e-04 0.000000000000000e+00 0.000000000000000e+00 
3.750000000000000e-04 0.000000000000000e+00 0.000000000000000e+00 
3.750000000000000e-04 0.000000000000000e+00 0.000000000000000e+00 
4.375000000000000e-04 0.000000000000000e+00 0.000000000000000e+00 
4.375000000000000e-04 0.000000000000000e+00 0.000000000000000e+00 
5.000000000000000e-04 0.000000000000000e+00 0.000000000000000e+00 
5.000000000000000e-04 0.000000000000000e+00 0.000000000000000e+00 
5.625000000000001e-04 0.000000000000000e+00 0.000000000000000e+00 
5.625000000000001e-04 0.000000000000000e+00 0.000000000000000e+00 
6.250000000000000e-04 0.000000000000000e+00 0.000000000000000e+00 
6.250000000000000e-04 0.000000000000000e+00 0.000000000000000e+00 
6.875000000000000e-04 0.000000000000000e+00 0.000000000000000e+00 
6.875000000000000e-04 0.000000000000000e+00 0.000000000000000e+00 
7.500000000000000e-04 0.000000000000000e+00 0.000000000000000e+00 
7.500000000000000e-04 0.000000000000000e+00 0.000000000000000e+00 
8.125000000000001e-04 0.000000000000000e+00 0.000000000000000e+00 
8.125000000000001e-04 0.000000000000000e+00 0.000000000000000e+00 
8.750000000000000e-04 0.000000000000000e+00 0.000000000000000e+00 
8.750000000000000e-04 0.000000000000000e+00 0.000000000000000e+00 
9.375000000000000e-04 0.000000000000000e+00 0.000000000000000e+00 
9.375000000000000e-04 0.000000000000000e+00 0.000000000000000e+00 
1.000000000000000e-03 0.000000000000000e+00 0.000000000000000e+00 
    </DataArray>
  </Points>

  <Cells>
    <DataArray type="Int32" Name="connectivity" format="ascii">
0 1 2 3 4 5 6 7 8 9 10 11 12 13 14 15 16 17 18 19 20 21 22 23 24 25 26 27 28 29 30 31     </DataArray>
    <DataArray type="Int32" Name="offsets" format="ascii">
2 4 6 8 10 12 14 16 18 20 22 24 26 28 30 32     </DataArray>
    <DataArray type="UInt8" Name="types" format="ascii">
3 3 3 3 3 3 3 3 3 3 3 3 3 3 3 3     </DataArray>
  </Cells>

  <PointData>
    <DataArray type="Float64" Name="phi_1" format="ascii">
9.040700709028983e+03 
9.051338013440678e+03 
9.051338013440678e+03 
9.083147995931009e+03 
9.083147995931009e+03 
9.135825808442698e+03 
9.135825808442698e+03 
9.208866512783905e+03 
9.208866512783905e+03 
9.301569772676970e+03 
9.301569772676970e+03 
9.413046383903333e+03 
9.413046383903333e+03 
9.542226586495430e+03 
9.542226586495430e+03 
9.687870143774740e+03 
9.687870143774740e+03 
9.848577942973670e+03 
9.848577942973670e+03 
1.002280565374754e+04 
1.002280565374754e+04 
1.020887695364641e+04 
1.020887695364641e+04 
1.040500513468979e+04 
1.040500513468979e+04 
1.060928924804606e+04 
1.060928924804606e+04 
1.081981155447237e+04 
1.081981155447237e+04 
1.103435778063082e+04 
1.103435778063082e+04 
1.125156268823250e+04 
    </DataArray>
    <DataArray type="Float64" Name="phiAnalytic_1" format="ascii">
9.326515617364937e+03 
9.335785242521613e+03 
9.335785242521613e+03 
9.363504846663036e+03 
9.363504846663036e+03 
9.409407475515356e+03 
9.409407475515356e+03 
9.473051062717628e+03 
9.473051062717628e+03 
9.553822687072279e+03 
9.553822687072279e+03 
9.650944475196044e+03 
9.650944475196044e+03 
9.763481092735545e+03 
9.763481092735545e+03 
9.890348752014184e+03 
9.890348752014184e+03 
1.003032564937344e+04 
1.003032564937344e+04 
1.018206373170203e+04 
1.018206373170203e+04 
1.034410167884434e+04 
1.034410167884434e+04 
1.051487897686697e+04 
1.051487897686697e+04 
1.069275094665448e+04 
1.069275094665448e+04 
1.087600458310096e+04 
1.087600458310096e+04 
1.106287505235470e+04 
1.106287505235470e+04 
1.125156268823250e+04 
    </DataArray>
    <DataArray type="Float64" Name="phi_2" format="ascii">
-1.755422921949736e+05 
-1.755393761851604e+05 
-1.755393761851604e+05 
-1.755306765575965e+05 
-1.755306765575965e+05 
-1.755163368091040e+05 
-1.755163368091040e+05 
-1.754965905305660e+05 
-1.754965905305660e+05 
-1.754717534749206e+05 
-1.754717534749206e+05 
-1.754422132464759e+05 
-1.754422132464759e+05 
-1.754084172911575e+05 
-1.754084172911575e+05 
-1.753708599209879e+05 
-1.753708599209879e+05 
-1.753300690881929e+05 
-1.753300690881929e+05 
-1.752865935481318e+05 
-1.752865935481318e+05 
-1.752409909278188e+05 
-1.752409909278188e+05 
-1.751938170910611e+05 
-1.751938170910611e+05 
-1.751456169915764e+05 
-1.751456169915764e+05 
-1.750969172871020e+05 
-1.750969172871020e+05 
-1.750482200741499e+05 
-1.750482200741499e+05 
-1.750000000000000e+05 
    </DataArray>
    <DataArray type="Float64" Name="phiAnalytic_2" format="ascii">
-1.754651393476112e+05 
-1.754626768724909e+05 
-1.754626768724909e+05 
-1.754553277234918e+05 
-1.754553277234918e+05 
-1.754432055191209e+05 
-1.754432055191209e+05 
-1.754264956678437e+05 
-1.754264956678437e+05 
-1.754054497040604e+05 
-1.754054497040604e+05 
-1.753803778670740e+05 
-1.753803778670740e+05 
-1.753516403656303e+05 
-1.753516403656303e+05 
-1.753196378147199e+05 
-1.753196378147199e+05 
-1.752848013317226e+05 
-1.752848013317226e+05 
-1.752475827411053e+05 
-1.752475827411053e+05 
-1.752084452700512e+05 
-1.752084452700512e+05 
-1.751678550327646e+05 
-1.751678550327646e+05 
-1.751262735098228e+05 
-1.751262735098228e+05 
-1.750841511403340e+05 
-1.750841511403340e+05 
-1.750419220658194e+05 
-1.750419220658194e+05 
-1.750000000000000e+05 
    </DataArray>
  </PointData>
  <CellData>
    <DataArray type="Float64" Name="Owner" format="ascii">
0.000000000000000e+00 
0.000000000000000e+00 
0.000000000000000e+00 
0.000000000000000e+00 
0.000000000000000e+00 
0.000000000000000e+00 
0.000000000000000e+00 
0.000000000000000e+00 
0.000000000000000e+00 
0.000000000000000e+00 
0.000000000000000e+00 
0.000000000000000e+00 
0.000000000000000e+00 
0.000000000000000e+00 
0.000000000000000e+00 
0.000000000000000e+00 
0.000000000000000e+00 
0.000000000000000e+00 
0.000000000000000e+00 
0.000000000000000e+00 
0.000000000000000e+00 
0.000000000000000e+00 
0.000000000000000e+00 
0.000000000000000e+00 
0.000000000000000e+00 
0.000000000000000e+00 
0.000000000000000e+00 
0.000000000000000e+00 
0.000000000000000e+00 
0.000000000000000e+00 
0.000000000000000e+00 
0.000000000000000e+00 
    </DataArray>
  </CellData>
</Piece>
</UnstructuredGrid>
</VTKFile>
