<?xml version="1.0" ?> 
<!-- 
# vtk DataFile Version 3.0
-->
<VTKFile type="UnstructuredGrid" version="0.1" compressor="vtkZLibDataCompressor" byte_order="LittleEndian">
<UnstructuredGrid>
<FieldData>
<DataArray type="Float32" Name="TIME" NumberOfTuples="1" format="ascii">372.023809525</DataArray>
</FieldData>
<Piece NumberOfPoints="32" NumberOfCells="16" >
  <Points>
    <DataArray type="Float64" NumberOfComponents="3" format="ascii">
0.000000000000000e+00 0.000000000000000e+00 0.000000000000000e+00 
6.250000000000000e-05 0.000000000000000e+00 0.000000000000000e+00 
6.250000000000000e-05 0.000000000000000e+00 0.000000000000000e+00 
1.250000000000000e-04 0.000000000000000e+00 0.000000000000000e+00 
1.250000000000000e-04 0.000000000000000e+00 0.000000000000000e+00 
1.875000000000000e-04 0.000000000000000e+00 0.000000000000000e+00 
1.875000000000000e-04 0.000000000000000e+00 0.000000000000000e+00 
2.500000000000000e-04 0.000000000000000e+00 0.000000000000000e+00 
2.500000000000000e-04 0.000000000000000e+00 0.000000000000000e+00 
3.125000000000000e-04 0.000000000000000e+00 0.000000000000000e+00 
3.125000000000000e-04 0.000000000000000e+00 0.000000000000000e+00 
3.750000000000000e-04 0.000000000000000e+00 0.000000000000000e+00 
3.750000000000000e-04 0.000000000000000e+00 0.000000000000000e+00 
4.375000000000000e-04 0.000000000000000e+00 0.000000000000000e+00 
4.375000000000000e-04 0.000000000000000e+00 0.000000000000000e+00 
5.000000000000000e-04 0.000000000000000e+00 0.000000000000000e+00 
5.000000000000000e-04 0.000000000000000e+00 0.000000000000000e+00 
5.625000000000001e-04 0.000000000000000e+00 0.000000000000000e+00 
5.625000000000001e-04 0.000000000000000e+00 0.000000000000000e+00 
6.250000000000000e-04 0.000000000000000e+00 0.000000000000000e+00 
6.250000000000000e-04 0.000000000000000e+00 0.000000000000000e+00 
6.875000000000000e-04 0.000000000000000e+00 0.000000000000000e+00 
6.875000000000000e-04 0.000000000000000e+00 0.000000000000000e+00 
7.500000000000000e-04 0.000000000000000e+00 0.000000000000000e+00 
7.500000000000000e-04 0.000000000000000e+00 0.000000000000000e+00 
8.125000000000001e-04 0.000000000000000e+00 0.000000000000000e+00 
8.125000000000001e-04 0.000000000000000e+00 0.000000000000000e+00 
8.750000000000000e-04 0.000000000000000e+00 0.000000000000000e+00 
8.750000000000000e-04 0.000000000000000e+00 0.000000000000000e+00 
9.375000000000000e-04 0.000000000000000e+00 0.000000000000000e+00 
9.375000000000000e-04 0.000000000000000e+00 0.000000000000000e+00 
1.000000000000000e-03 0.000000000000000e+00 0.000000000000000e+00 
    </DataArray>
  </Points>

  <Cells>
    <DataArray type="Int32" Name="connectivity" format="ascii">
0 1 2 3 4 5 6 7 8 9 10 11 12 13 14 15 16 17 18 19 20 21 22 23 24 25 26 27 28 29 30 31     </DataArray>
    <DataArray type="Int32" Name="offsets" format="ascii">
2 4 6 8 10 12 14 16 18 20 22 24 26 28 30 32     </DataArray>
    <DataArray type="UInt8" Name="types" format="ascii">
3 3 3 3 3 3 3 3 3 3 3 3 3 3 3 3     </DataArray>
  </Cells>

  <PointData>
    <DataArray type="Float64" Name="phi_1" format="ascii">
4.343925278754963e+03 
4.374904423190952e+03 
4.374904423190952e+03 
4.467725838649140e+03 
4.467725838649140e+03 
4.622028983763446e+03 
4.622028983763446e+03 
4.837172517766094e+03 
4.837172517766094e+03 
5.112177503537636e+03 
5.112177503537636e+03 
5.445654842989697e+03 
5.445654842989697e+03 
5.835722498357622e+03 
5.835722498357622e+03 
6.279919240115119e+03 
6.279919240115119e+03 
6.775120809788778e+03 
6.775120809788778e+03 
7.317472048105250e+03 
7.317472048105250e+03 
7.902323690451162e+03 
7.902323690451162e+03 
8.524262904042907e+03 
8.524262904042907e+03 
9.176938208823331e+03 
9.176938208823331e+03 
9.853882289043890e+03 
9.853882289043890e+03 
1.054569896297776e+04 
1.054569896297776e+04 
1.125156268823250e+04 
    </DataArray>
    <DataArray type="Float64" Name="phiAnalytic_1" format="ascii">
4.645732367714663e+03 
4.677364753416262e+03 
4.677364753416262e+03 
4.771972472593957e+03 
4.771972472593957e+03 
4.928688690012376e+03 
4.928688690012376e+03 
5.146073707236494e+03 
5.146073707236494e+03 
5.422122837063293e+03 
5.422122837063293e+03 
5.754278058307703e+03 
5.754278058307703e+03 
6.139443997591462e+03 
6.139443997591462e+03 
6.574008829404534e+03 
6.574008829404534e+03 
7.053870660469570e+03 
7.053870660469570e+03 
7.574469867674319e+03 
7.574469867674319e+03 
8.130827695256022e+03 
8.130827695256022e+03 
8.717591197245805e+03 
8.717591197245805e+03 
9.329084351248533e+03 
9.329084351248533e+03 
9.959364889068947e+03 
9.959364889068947e+03 
1.060228611024491e+04 
1.060228611024491e+04 
1.125156268823250e+04 
    </DataArray>
    <DataArray type="Float64" Name="phi_2" format="ascii">
-1.773591665829961e+05 
-1.773415097183677e+05 
-1.773415097183677e+05 
-1.772893498290958e+05 
-1.772893498290958e+05 
-1.772050102666602e+05 
-1.772050102666602e+05 
-1.770920309574077e+05 
-1.770920309574077e+05 
-1.769547619529579e+05 
-1.769547619529579e+05 
-1.767979380400837e+05 
-1.767979380400837e+05 
-1.766263087381498e+05 
-1.766263087381498e+05 
-1.764443643679791e+05 
-1.764443643679791e+05 
-1.762561658395215e+05 
-1.762561658395215e+05 
-1.760652636617562e+05 
-1.760652636617562e+05 
-1.758746818636930e+05 
-1.758746818636930e+05 
-1.756869430131509e+05 
-1.756869430131509e+05 
-1.755041123967135e+05 
-1.755041123967135e+05 
-1.753278551503274e+05 
-1.753278551503274e+05 
-1.751594719228237e+05 
-1.751594719228237e+05 
-1.750000000000000e+05 
    </DataArray>
    <DataArray type="Float64" Name="phiAnalytic_2" format="ascii">
-1.771926592575711e+05 
-1.771758383960649e+05 
-1.771758383960649e+05 
-1.771262003627768e+05 
-1.771262003627768e+05 
-1.770461017081392e+05 
-1.770461017081392e+05 
-1.769391132232208e+05 
-1.769391132232208e+05 
-1.768095865737121e+05 
-1.768095865737121e+05 
-1.766622054536948e+05 
-1.766622054536948e+05 
-1.765016012877984e+05 
-1.765016012877984e+05 
-1.763320757558056e+05 
-1.763320757558056e+05 
-1.761574363126874e+05 
-1.761574363126874e+05 
-1.759809273670859e+05 
-1.759809273670859e+05 
-1.758052302521743e+05 
-1.758052302521743e+05 
-1.756325055547645e+05 
-1.756325055547645e+05 
-1.754644567186243e+05 
-1.754644567186243e+05 
-1.753024003662377e+05 
-1.753024003662377e+05 
-1.751473345028390e+05 
-1.751473345028390e+05 
-1.750000000000000e+05 
    </DataArray>
  </PointData>
  <CellData>
    <DataArray type="Float64" Name="Owner" format="ascii">
0.000000000000000e+00 
0.000000000000000e+00 
0.000000000000000e+00 
0.000000000000000e+00 
0.000000000000000e+00 
0.000000000000000e+00 
0.000000000000000e+00 
0.000000000000000e+00 
0.000000000000000e+00 
0.000000000000000e+00 
0.000000000000000e+00 
0.000000000000000e+00 
0.000000000000000e+00 
0.000000000000000e+00 
0.000000000000000e+00 
0.000000000000000e+00 
0.000000000000000e+00 
0.000000000000000e+00 
0.000000000000000e+00 
0.000000000000000e+00 
0.000000000000000e+00 
0.000000000000000e+00 
0.000000000000000e+00 
0.000000000000000e+00 
0.000000000000000e+00 
0.000000000000000e+00 
0.000000000000000e+00 
0.000000000000000e+00 
0.000000000000000e+00 
0.000000000000000e+00 
0.000000000000000e+00 
0.000000000000000e+00 
    </DataArray>
  </CellData>
</Piece>
</UnstructuredGrid>
</VTKFile>
