<?xml version="1.0" ?> 
<!-- 
# vtk DataFile Version 3.0
-->
<VTKFile type="UnstructuredGrid" version="0.1" compressor="vtkZLibDataCompressor" byte_order="LittleEndian">
<UnstructuredGrid>
<FieldData>
<DataArray type="Float32" Name="TIME" NumberOfTuples="1" format="ascii">1190.47619048</DataArray>
</FieldData>
<Piece NumberOfPoints="32" NumberOfCells="16" >
  <Points>
    <DataArray type="Float64" NumberOfComponents="3" format="ascii">
0.000000000000000e+00 0.000000000000000e+00 0.000000000000000e+00 
6.250000000000000e-05 0.000000000000000e+00 0.000000000000000e+00 
6.250000000000000e-05 0.000000000000000e+00 0.000000000000000e+00 
1.250000000000000e-04 0.000000000000000e+00 0.000000000000000e+00 
1.250000000000000e-04 0.000000000000000e+00 0.000000000000000e+00 
1.875000000000000e-04 0.000000000000000e+00 0.000000000000000e+00 
1.875000000000000e-04 0.000000000000000e+00 0.000000000000000e+00 
2.500000000000000e-04 0.000000000000000e+00 0.000000000000000e+00 
2.500000000000000e-04 0.000000000000000e+00 0.000000000000000e+00 
3.125000000000000e-04 0.000000000000000e+00 0.000000000000000e+00 
3.125000000000000e-04 0.000000000000000e+00 0.000000000000000e+00 
3.750000000000000e-04 0.000000000000000e+00 0.000000000000000e+00 
3.750000000000000e-04 0.000000000000000e+00 0.000000000000000e+00 
4.375000000000000e-04 0.000000000000000e+00 0.000000000000000e+00 
4.375000000000000e-04 0.000000000000000e+00 0.000000000000000e+00 
5.000000000000000e-04 0.000000000000000e+00 0.000000000000000e+00 
5.000000000000000e-04 0.000000000000000e+00 0.000000000000000e+00 
5.625000000000001e-04 0.000000000000000e+00 0.000000000000000e+00 
5.625000000000001e-04 0.000000000000000e+00 0.000000000000000e+00 
6.250000000000000e-04 0.000000000000000e+00 0.000000000000000e+00 
6.250000000000000e-04 0.000000000000000e+00 0.000000000000000e+00 
6.875000000000000e-04 0.000000000000000e+00 0.000000000000000e+00 
6.875000000000000e-04 0.000000000000000e+00 0.000000000000000e+00 
7.500000000000000e-04 0.000000000000000e+00 0.000000000000000e+00 
7.500000000000000e-04 0.000000000000000e+00 0.000000000000000e+00 
8.125000000000001e-04 0.000000000000000e+00 0.000000000000000e+00 
8.125000000000001e-04 0.000000000000000e+00 0.000000000000000e+00 
8.750000000000000e-04 0.000000000000000e+00 0.000000000000000e+00 
8.750000000000000e-04 0.000000000000000e+00 0.000000000000000e+00 
9.375000000000000e-04 0.000000000000000e+00 0.000000000000000e+00 
9.375000000000000e-04 0.000000000000000e+00 0.000000000000000e+00 
1.000000000000000e-03 0.000000000000000e+00 0.000000000000000e+00 
    </DataArray>
  </Points>

  <Cells>
    <DataArray type="Int32" Name="connectivity" format="ascii">
0 1 2 3 4 5 6 7 8 9 10 11 12 13 14 15 16 17 18 19 20 21 22 23 24 25 26 27 28 29 30 31     </DataArray>
    <DataArray type="Int32" Name="offsets" format="ascii">
2 4 6 8 10 12 14 16 18 20 22 24 26 28 30 32     </DataArray>
    <DataArray type="UInt8" Name="types" format="ascii">
3 3 3 3 3 3 3 3 3 3 3 3 3 3 3 3     </DataArray>
  </Cells>

  <PointData>
    <DataArray type="Float64" Name="phi_1" format="ascii">
9.814083766223239e+03 
9.821002939280896e+03 
9.821002939280896e+03 
9.841693953405371e+03 
9.841693953405371e+03 
9.875957926322260e+03 
9.875957926322260e+03 
9.923465491754459e+03 
9.923465491754459e+03 
9.983759936047765e+03 
9.983759936047765e+03 
1.005626155197288e+04 
1.005626155197288e+04 
1.014027316581111e+04 
1.014027316581111e+04 
1.023498680760850e+04 
1.023498680760850e+04 
1.033949139089473e+04 
1.033949139089473e+04 
1.045278160531583e+04 
1.045278160531583e+04 
1.057376691165978e+04 
1.057376691165978e+04 
1.070128441087166e+04 
1.070128441087166e+04 
1.083410099225755e+04 
1.083410099225755e+04 
1.097095907205021e+04 
1.097095907205021e+04 
1.111046147382256e+04 
1.111046147382256e+04 
1.125156268823250e+04 
    </DataArray>
    <DataArray type="Float64" Name="phiAnalytic_1" format="ascii">
1.003951316355870e+04 
1.004534951326550e+04 
1.004534951326550e+04 
1.006280235515132e+04 
1.006280235515132e+04 
1.009170360881846e+04 
1.009170360881846e+04 
1.013177493941139e+04 
1.013177493941139e+04 
1.018263043813207e+04 
1.018263043813207e+04 
1.024378033875093e+04 
1.024378033875093e+04 
1.031463573432129e+04 
1.031463573432129e+04 
1.039451424867316e+04 
1.039451424867316e+04 
1.048264660806678e+04 
1.048264660806678e+04 
1.057818404971759e+04 
1.057818404971759e+04 
1.068020649584460e+04 
1.068020649584460e+04 
1.078773141452165e+04 
1.078773141452165e+04 
1.089972328199687e+04 
1.089972328199687e+04 
1.101510355535304e+04 
1.101510355535304e+04 
1.113276105946647e+04 
1.113276105946647e+04 
1.125156268823250e+04 
    </DataArray>
    <DataArray type="Float64" Name="phi_2" format="ascii">
-1.753388262265544e+05 
-1.753370788031984e+05 
-1.753370788031984e+05 
-1.753318606816045e+05 
-1.753318606816045e+05 
-1.753232436928722e+05 
-1.753232436928722e+05 
-1.753113455398329e+05 
-1.753113455398329e+05 
-1.752963268829288e+05 
-1.752963268829288e+05 
-1.752783874692745e+05 
-1.752783874692745e+05 
-1.752577614918892e+05 
-1.752577614918892e+05 
-1.752347123915323e+05 
-1.752347123915323e+05 
-1.752095273229205e+05 
-1.752095273229205e+05 
-1.751825115015806e+05 
-1.751825115015806e+05 
-1.751539826279955e+05 
-1.751539826279955e+05 
-1.751242655611517e+05 
-1.751242655611517e+05 
-1.750936873645975e+05 
-1.750936873645975e+05 
-1.750625728675517e+05 
-1.750625728675517e+05 
-1.750312406338410e+05 
-1.750312406338410e+05 
-1.750000000000000e+05 
    </DataArray>
    <DataArray type="Float64" Name="phiAnalytic_2" format="ascii">
-1.752825318379367e+05 
-1.752810912250964e+05 
-1.752810912250964e+05 
-1.752767882489738e+05 
-1.752767882489738e+05 
-1.752696790666562e+05 
-1.752696790666562e+05 
-1.752598558594972e+05 
-1.752598558594972e+05 
-1.752474447805043e+05 
-1.752474447805043e+05 
-1.752326032113126e+05 
-1.752326032113126e+05 
-1.752155164471666e+05 
-1.752155164471666e+05 
-1.751963939463228e+05 
-1.751963939463228e+05 
-1.751754652889211e+05 
-1.751754652889211e+05 
-1.751529759898618e+05 
-1.751529759898618e+05 
-1.751291833015931e+05 
-1.751291833015931e+05 
-1.751043521275806e+05 
-1.751043521275806e+05 
-1.750787511475102e+05 
-1.750787511475102e+05 
-1.750526492330218e+05 
-1.750526492330218e+05 
-1.750263122098225e+05 
-1.750263122098225e+05 
-1.750000000000000e+05 
    </DataArray>
  </PointData>
  <CellData>
    <DataArray type="Float64" Name="Owner" format="ascii">
0.000000000000000e+00 
0.000000000000000e+00 
0.000000000000000e+00 
0.000000000000000e+00 
0.000000000000000e+00 
0.000000000000000e+00 
0.000000000000000e+00 
0.000000000000000e+00 
0.000000000000000e+00 
0.000000000000000e+00 
0.000000000000000e+00 
0.000000000000000e+00 
0.000000000000000e+00 
0.000000000000000e+00 
0.000000000000000e+00 
0.000000000000000e+00 
0.000000000000000e+00 
0.000000000000000e+00 
0.000000000000000e+00 
0.000000000000000e+00 
0.000000000000000e+00 
0.000000000000000e+00 
0.000000000000000e+00 
0.000000000000000e+00 
0.000000000000000e+00 
0.000000000000000e+00 
0.000000000000000e+00 
0.000000000000000e+00 
0.000000000000000e+00 
0.000000000000000e+00 
0.000000000000000e+00 
0.000000000000000e+00 
    </DataArray>
  </CellData>
</Piece>
</UnstructuredGrid>
</VTKFile>
