<?xml version="1.0" ?> 
<!-- 
# vtk DataFile Version 3.0
-->
<VTKFile type="UnstructuredGrid" version="0.1" compressor="vtkZLibDataCompressor" byte_order="LittleEndian">
<UnstructuredGrid>
<FieldData>
<DataArray type="Float32" Name="TIME" NumberOfTuples="1" format="ascii">297.61904762</DataArray>
</FieldData>
<Piece NumberOfPoints="32" NumberOfCells="16" >
  <Points>
    <DataArray type="Float64" NumberOfComponents="3" format="ascii">
0.000000000000000e+00 0.000000000000000e+00 0.000000000000000e+00 
6.250000000000000e-05 0.000000000000000e+00 0.000000000000000e+00 
6.250000000000000e-05 0.000000000000000e+00 0.000000000000000e+00 
1.250000000000000e-04 0.000000000000000e+00 0.000000000000000e+00 
1.250000000000000e-04 0.000000000000000e+00 0.000000000000000e+00 
1.875000000000000e-04 0.000000000000000e+00 0.000000000000000e+00 
1.875000000000000e-04 0.000000000000000e+00 0.000000000000000e+00 
2.500000000000000e-04 0.000000000000000e+00 0.000000000000000e+00 
2.500000000000000e-04 0.000000000000000e+00 0.000000000000000e+00 
3.125000000000000e-04 0.000000000000000e+00 0.000000000000000e+00 
3.125000000000000e-04 0.000000000000000e+00 0.000000000000000e+00 
3.750000000000000e-04 0.000000000000000e+00 0.000000000000000e+00 
3.750000000000000e-04 0.000000000000000e+00 0.000000000000000e+00 
4.375000000000000e-04 0.000000000000000e+00 0.000000000000000e+00 
4.375000000000000e-04 0.000000000000000e+00 0.000000000000000e+00 
5.000000000000000e-04 0.000000000000000e+00 0.000000000000000e+00 
5.000000000000000e-04 0.000000000000000e+00 0.000000000000000e+00 
5.625000000000001e-04 0.000000000000000e+00 0.000000000000000e+00 
5.625000000000001e-04 0.000000000000000e+00 0.000000000000000e+00 
6.250000000000000e-04 0.000000000000000e+00 0.000000000000000e+00 
6.250000000000000e-04 0.000000000000000e+00 0.000000000000000e+00 
6.875000000000000e-04 0.000000000000000e+00 0.000000000000000e+00 
6.875000000000000e-04 0.000000000000000e+00 0.000000000000000e+00 
7.500000000000000e-04 0.000000000000000e+00 0.000000000000000e+00 
7.500000000000000e-04 0.000000000000000e+00 0.000000000000000e+00 
8.125000000000001e-04 0.000000000000000e+00 0.000000000000000e+00 
8.125000000000001e-04 0.000000000000000e+00 0.000000000000000e+00 
8.750000000000000e-04 0.000000000000000e+00 0.000000000000000e+00 
8.750000000000000e-04 0.000000000000000e+00 0.000000000000000e+00 
9.375000000000000e-04 0.000000000000000e+00 0.000000000000000e+00 
9.375000000000000e-04 0.000000000000000e+00 0.000000000000000e+00 
1.000000000000000e-03 0.000000000000000e+00 0.000000000000000e+00 
    </DataArray>
  </Points>

  <Cells>
    <DataArray type="Int32" Name="connectivity" format="ascii">
0 1 2 3 4 5 6 7 8 9 10 11 12 13 14 15 16 17 18 19 20 21 22 23 24 25 26 27 28 29 30 31     </DataArray>
    <DataArray type="Int32" Name="offsets" format="ascii">
2 4 6 8 10 12 14 16 18 20 22 24 26 28 30 32     </DataArray>
    <DataArray type="UInt8" Name="types" format="ascii">
3 3 3 3 3 3 3 3 3 3 3 3 3 3 3 3     </DataArray>
  </Cells>

  <PointData>
    <DataArray type="Float64" Name="phi_1" format="ascii">
3.349597129955554e+03 
3.382518095799727e+03 
3.382518095799727e+03 
3.481344944436762e+03 
3.481344944436762e+03 
3.646245632376848e+03 
3.646245632376848e+03 
3.877422079936203e+03 
3.877422079936203e+03 
4.174998136843375e+03 
4.174998136843375e+03 
4.538870723281308e+03 
4.538870723281308e+03 
4.968529356882506e+03 
4.968529356882506e+03 
5.462850697693494e+03 
5.462850697693494e+03 
6.019875034884680e+03 
6.019875034884680e+03 
6.636584672203617e+03 
6.636584672203617e+03 
7.308675839508383e+03 
7.308675839508383e+03 
8.030455862881180e+03 
8.030455862881180e+03 
8.794479362033326e+03 
8.794479362033326e+03 
9.592594646986521e+03 
9.592594646986521e+03 
1.041203629962447e+04 
1.041203629962447e+04 
1.125156268823250e+04 
    </DataArray>
    <DataArray type="Float64" Name="phiAnalytic_1" format="ascii">
3.557388243736528e+03 
3.593730741080543e+03 
3.593730741080543e+03 
3.702469116402026e+03 
3.702469116402026e+03 
3.882733563158282e+03 
3.882733563158282e+03 
4.133066690185172e+03 
4.133066690185172e+03 
4.451413568598558e+03 
4.451413568598558e+03 
4.835110880012724e+03 
4.835110880012724e+03 
5.280877907227693e+03 
5.280877907227693e+03 
5.784812437121288e+03 
5.784812437121288e+03 
6.342394688035317e+03 
6.342394688035317e+03 
6.948502122121750e+03 
6.948502122121750e+03 
7.597437474118576e+03 
7.597437474118576e+03 
8.282971563234287e+03 
8.282971563234287e+03 
8.998401516320129e+03 
8.998401516320129e+03 
9.736623995826256e+03 
9.736623995826256e+03 
1.049022198151092e+04 
1.049022198151092e+04 
1.125156268823250e+04 
    </DataArray>
    <DataArray type="Float64" Name="phi_2" format="ascii">
-1.780035096830507e+05 
-1.779791870719054e+05 
-1.779791870719054e+05 
-1.779075819230553e+05 
-1.779075819230553e+05 
-1.777925489128743e+05 
-1.777925489128743e+05 
-1.776398169222717e+05 
-1.776398169222717e+05 
-1.774561871689716e+05 
-1.774561871689716e+05 
-1.772487628907171e+05 
-1.772487628907171e+05 
-1.770243560804008e+05 
-1.770243560804008e+05 
-1.767891204307857e+05 
-1.767891204307857e+05 
-1.765483864012932e+05 
-1.765483864012932e+05 
-1.763066406213329e+05 
-1.763066406213329e+05 
-1.760675886621457e+05 
-1.760675886621457e+05 
-1.758342543428187e+05 
-1.758342543428187e+05 
-1.756090799179752e+05 
-1.756090799179752e+05 
-1.753940228131039e+05 
-1.753940228131039e+05 
-1.751905946691030e+05 
-1.751905946691030e+05 
-1.750000000000000e+05 
    </DataArray>
    <DataArray type="Float64" Name="phiAnalytic_2" format="ascii">
-1.778543115800552e+05 
-1.778291162917851e+05 
-1.778291162917851e+05 
-1.777552250262463e+05 
-1.777552250262463e+05 
-1.776373831899822e+05 
-1.776373831899822e+05 
-1.774825059795248e+05 
-1.774825059795248e+05 
-1.772985725698604e+05 
-1.772985725698604e+05 
-1.770936179570915e+05 
-1.770936179570915e+05 
-1.768750151325561e+05 
-1.768750151325561e+05 
-1.766490866765946e+05 
-1.766490866765946e+05 
-1.764209845771275e+05 
-1.764209845771275e+05 
-1.761947434862200e+05 
-1.761947434862200e+05 
-1.759734223667267e+05 
-1.759734223667267e+05 
-1.757592752698296e+05 
-1.757592752698296e+05 
-1.755539170954547e+05 
-1.755539170954547e+05 
-1.753584684238978e+05 
-1.753584684238978e+05 
-1.751736745962346e+05 
-1.751736745962346e+05 
-1.750000000000000e+05 
    </DataArray>
  </PointData>
  <CellData>
    <DataArray type="Float64" Name="Owner" format="ascii">
0.000000000000000e+00 
0.000000000000000e+00 
0.000000000000000e+00 
0.000000000000000e+00 
0.000000000000000e+00 
0.000000000000000e+00 
0.000000000000000e+00 
0.000000000000000e+00 
0.000000000000000e+00 
0.000000000000000e+00 
0.000000000000000e+00 
0.000000000000000e+00 
0.000000000000000e+00 
0.000000000000000e+00 
0.000000000000000e+00 
0.000000000000000e+00 
0.000000000000000e+00 
0.000000000000000e+00 
0.000000000000000e+00 
0.000000000000000e+00 
0.000000000000000e+00 
0.000000000000000e+00 
0.000000000000000e+00 
0.000000000000000e+00 
0.000000000000000e+00 
0.000000000000000e+00 
0.000000000000000e+00 
0.000000000000000e+00 
0.000000000000000e+00 
0.000000000000000e+00 
0.000000000000000e+00 
0.000000000000000e+00 
    </DataArray>
  </CellData>
</Piece>
</UnstructuredGrid>
</VTKFile>
