<?xml version="1.0" ?> 
<!-- 
# vtk DataFile Version 3.0
-->
<VTKFile type="UnstructuredGrid" version="0.1" compressor="vtkZLibDataCompressor" byte_order="LittleEndian">
<UnstructuredGrid>
<FieldData>
<DataArray type="Float32" Name="TIME" NumberOfTuples="1" format="ascii">223.214285715</DataArray>
</FieldData>
<Piece NumberOfPoints="32" NumberOfCells="16" >
  <Points>
    <DataArray type="Float64" NumberOfComponents="3" format="ascii">
0.000000000000000e+00 0.000000000000000e+00 0.000000000000000e+00 
6.250000000000000e-05 0.000000000000000e+00 0.000000000000000e+00 
6.250000000000000e-05 0.000000000000000e+00 0.000000000000000e+00 
1.250000000000000e-04 0.000000000000000e+00 0.000000000000000e+00 
1.250000000000000e-04 0.000000000000000e+00 0.000000000000000e+00 
1.875000000000000e-04 0.000000000000000e+00 0.000000000000000e+00 
1.875000000000000e-04 0.000000000000000e+00 0.000000000000000e+00 
2.500000000000000e-04 0.000000000000000e+00 0.000000000000000e+00 
2.500000000000000e-04 0.000000000000000e+00 0.000000000000000e+00 
3.125000000000000e-04 0.000000000000000e+00 0.000000000000000e+00 
3.125000000000000e-04 0.000000000000000e+00 0.000000000000000e+00 
3.750000000000000e-04 0.000000000000000e+00 0.000000000000000e+00 
3.750000000000000e-04 0.000000000000000e+00 0.000000000000000e+00 
4.375000000000000e-04 0.000000000000000e+00 0.000000000000000e+00 
4.375000000000000e-04 0.000000000000000e+00 0.000000000000000e+00 
5.000000000000000e-04 0.000000000000000e+00 0.000000000000000e+00 
5.000000000000000e-04 0.000000000000000e+00 0.000000000000000e+00 
5.625000000000001e-04 0.000000000000000e+00 0.000000000000000e+00 
5.625000000000001e-04 0.000000000000000e+00 0.000000000000000e+00 
6.250000000000000e-04 0.000000000000000e+00 0.000000000000000e+00 
6.250000000000000e-04 0.000000000000000e+00 0.000000000000000e+00 
6.875000000000000e-04 0.000000000000000e+00 0.000000000000000e+00 
6.875000000000000e-04 0.000000000000000e+00 0.000000000000000e+00 
7.500000000000000e-04 0.000000000000000e+00 0.000000000000000e+00 
7.500000000000000e-04 0.000000000000000e+00 0.000000000000000e+00 
8.125000000000001e-04 0.000000000000000e+00 0.000000000000000e+00 
8.125000000000001e-04 0.000000000000000e+00 0.000000000000000e+00 
8.750000000000000e-04 0.000000000000000e+00 0.000000000000000e+00 
8.750000000000000e-04 0.000000000000000e+00 0.000000000000000e+00 
9.375000000000000e-04 0.000000000000000e+00 0.000000000000000e+00 
9.375000000000000e-04 0.000000000000000e+00 0.000000000000000e+00 
1.000000000000000e-03 0.000000000000000e+00 0.000000000000000e+00 
    </DataArray>
  </Points>

  <Cells>
    <DataArray type="Int32" Name="connectivity" format="ascii">
0 1 2 3 4 5 6 7 8 9 10 11 12 13 14 15 16 17 18 19 20 21 22 23 24 25 26 27 28 29 30 31     </DataArray>
    <DataArray type="Int32" Name="offsets" format="ascii">
2 4 6 8 10 12 14 16 18 20 22 24 26 28 30 32     </DataArray>
    <DataArray type="UInt8" Name="types" format="ascii">
3 3 3 3 3 3 3 3 3 3 3 3 3 3 3 3     </DataArray>
  </Cells>

  <PointData>
    <DataArray type="Float64" Name="phi_1" format="ascii">
2.292988579584543e+03 
2.325013380237989e+03 
2.325013380237989e+03 
2.421492670626156e+03 
2.421492670626156e+03 
2.583609968692746e+03 
2.583609968692746e+03 
2.813235558678858e+03 
2.813235558678858e+03 
3.112776164087991e+03 
3.112776164087991e+03 
3.484964576036111e+03 
3.484964576036111e+03 
3.932581728691694e+03 
3.932581728691694e+03 
4.458100964773664e+03 
4.458100964773664e+03 
5.063242193131478e+03 
5.063242193131478e+03 
5.748441293420266e+03 
5.748441293420266e+03 
6.512205022394212e+03 
6.512205022394212e+03 
7.350528343105213e+03 
7.350528343105213e+03 
8.255840624244642e+03 
8.255840624244642e+03 
9.217953074765639e+03 
9.217953074765639e+03 
1.021784251678409e+04 
1.021784251678409e+04 
1.125156268823250e+04 
    </DataArray>
    <DataArray type="Float64" Name="phiAnalytic_1" format="ascii">
2.326949302264753e+03 
2.367093760538931e+03 
2.367093760538931e+03 
2.487383778859221e+03 
2.487383778859221e+03 
2.687369828008621e+03 
2.687369828008621e+03 
2.966239783398674e+03 
2.966239783398674e+03 
3.322731243761253e+03 
3.322731243761253e+03 
3.755021560678109e+03 
3.755021560678109e+03 
4.260607051029558e+03 
4.260607051029558e+03 
4.836184384488274e+03 
4.836184384488274e+03 
5.477547534468891e+03 
5.477547534468891e+03 
6.179512904344848e+03 
6.179512904344848e+03 
6.935883340812910e+03 
6.935883340812910e+03 
7.739458869960552e+03 
7.739458869960552e+03 
8.582098373444076e+03 
8.582098373444076e+03 
9.454832366375244e+03 
9.454832366375244e+03 
1.034802289349989e+04 
1.034802289349989e+04 
1.125156268823250e+04 
    </DataArray>
    <DataArray type="Float64" Name="phi_2" format="ascii">
-1.789429491650389e+05 
-1.789084098713487e+05 
-1.789084098713487e+05 
-1.788071917716508e+05 
-1.788071917716508e+05 
-1.786459549210015e+05 
-1.786459549210015e+05 
-1.784342475839576e+05 
-1.784342475839576e+05 
-1.781828624422796e+05 
-1.781828624422796e+05 
-1.779024437391988e+05 
-1.779024437391988e+05 
-1.776026021290086e+05 
-1.776026021290086e+05 
-1.772915311370669e+05 
-1.772915311370669e+05 
-1.769759824262352e+05 
-1.769759824262352e+05 
-1.766614381527070e+05 
-1.766614381527070e+05 
-1.763523563983111e+05 
-1.763523563983111e+05 
-1.760524168717469e+05 
-1.760524168717469e+05 
-1.757647195861797e+05 
-1.757647195861797e+05 
-1.754919443248158e+05 
-1.754919443248158e+05 
-1.752363637015688e+05 
-1.752363637015688e+05 
-1.750000000000000e+05 
    </DataArray>
    <DataArray type="Float64" Name="phiAnalytic_2" format="ascii">
-1.789064923015613e+05 
-1.788640924876736e+05 
-1.788640924876736e+05 
-1.787412210796696e+05 
-1.787412210796696e+05 
-1.785495303069652e+05 
-1.785495303069652e+05 
-1.783047912215786e+05 
-1.783047912215786e+05 
-1.780234650247165e+05 
-1.780234650247165e+05 
-1.777202882989564e+05 
-1.777202882989564e+05 
-1.774071697616221e+05 
-1.774071697616221e+05 
-1.770930676640157e+05 
-1.770930676640157e+05 
-1.767843768236873e+05 
-1.767843768236873e+05 
-1.764854759092561e+05 
-1.764854759092561e+05 
-1.761992492217923e+05 
-1.761992492217923e+05 
-1.759275127636577e+05 
-1.759275127636577e+05 
-1.756713350454197e+05 
-1.756713350454197e+05 
-1.754312675554756e+05 
-1.754312675554756e+05 
-1.752075057839327e+05 
-1.752075057839327e+05 
-1.750000000000000e+05 
    </DataArray>
  </PointData>
  <CellData>
    <DataArray type="Float64" Name="Owner" format="ascii">
0.000000000000000e+00 
0.000000000000000e+00 
0.000000000000000e+00 
0.000000000000000e+00 
0.000000000000000e+00 
0.000000000000000e+00 
0.000000000000000e+00 
0.000000000000000e+00 
0.000000000000000e+00 
0.000000000000000e+00 
0.000000000000000e+00 
0.000000000000000e+00 
0.000000000000000e+00 
0.000000000000000e+00 
0.000000000000000e+00 
0.000000000000000e+00 
0.000000000000000e+00 
0.000000000000000e+00 
0.000000000000000e+00 
0.000000000000000e+00 
0.000000000000000e+00 
0.000000000000000e+00 
0.000000000000000e+00 
0.000000000000000e+00 
0.000000000000000e+00 
0.000000000000000e+00 
0.000000000000000e+00 
0.000000000000000e+00 
0.000000000000000e+00 
0.000000000000000e+00 
0.000000000000000e+00 
0.000000000000000e+00 
    </DataArray>
  </CellData>
</Piece>
</UnstructuredGrid>
</VTKFile>
