<?xml version="1.0" ?> 
<!-- 
# vtk DataFile Version 3.0
-->
<VTKFile type="UnstructuredGrid" version="0.1" compressor="vtkZLibDataCompressor" byte_order="LittleEndian">
<UnstructuredGrid>
<FieldData>
<DataArray type="Float32" Name="TIME" NumberOfTuples="1" format="ascii">595.23809524</DataArray>
</FieldData>
<Piece NumberOfPoints="32" NumberOfCells="16" >
  <Points>
    <DataArray type="Float64" NumberOfComponents="3" format="ascii">
0.000000000000000e+00 0.000000000000000e+00 0.000000000000000e+00 
6.250000000000000e-05 0.000000000000000e+00 0.000000000000000e+00 
6.250000000000000e-05 0.000000000000000e+00 0.000000000000000e+00 
1.250000000000000e-04 0.000000000000000e+00 0.000000000000000e+00 
1.250000000000000e-04 0.000000000000000e+00 0.000000000000000e+00 
1.875000000000000e-04 0.000000000000000e+00 0.000000000000000e+00 
1.875000000000000e-04 0.000000000000000e+00 0.000000000000000e+00 
2.500000000000000e-04 0.000000000000000e+00 0.000000000000000e+00 
2.500000000000000e-04 0.000000000000000e+00 0.000000000000000e+00 
3.125000000000000e-04 0.000000000000000e+00 0.000000000000000e+00 
3.125000000000000e-04 0.000000000000000e+00 0.000000000000000e+00 
3.750000000000000e-04 0.000000000000000e+00 0.000000000000000e+00 
3.750000000000000e-04 0.000000000000000e+00 0.000000000000000e+00 
4.375000000000000e-04 0.000000000000000e+00 0.000000000000000e+00 
4.375000000000000e-04 0.000000000000000e+00 0.000000000000000e+00 
5.000000000000000e-04 0.000000000000000e+00 0.000000000000000e+00 
5.000000000000000e-04 0.000000000000000e+00 0.000000000000000e+00 
5.625000000000001e-04 0.000000000000000e+00 0.000000000000000e+00 
5.625000000000001e-04 0.000000000000000e+00 0.000000000000000e+00 
6.250000000000000e-04 0.000000000000000e+00 0.000000000000000e+00 
6.250000000000000e-04 0.000000000000000e+00 0.000000000000000e+00 
6.875000000000000e-04 0.000000000000000e+00 0.000000000000000e+00 
6.875000000000000e-04 0.000000000000000e+00 0.000000000000000e+00 
7.500000000000000e-04 0.000000000000000e+00 0.000000000000000e+00 
7.500000000000000e-04 0.000000000000000e+00 0.000000000000000e+00 
8.125000000000001e-04 0.000000000000000e+00 0.000000000000000e+00 
8.125000000000001e-04 0.000000000000000e+00 0.000000000000000e+00 
8.750000000000000e-04 0.000000000000000e+00 0.000000000000000e+00 
8.750000000000000e-04 0.000000000000000e+00 0.000000000000000e+00 
9.375000000000000e-04 0.000000000000000e+00 0.000000000000000e+00 
9.375000000000000e-04 0.000000000000000e+00 0.000000000000000e+00 
1.000000000000000e-03 0.000000000000000e+00 0.000000000000000e+00 
    </DataArray>
  </Points>

  <Cells>
    <DataArray type="Int32" Name="connectivity" format="ascii">
0 1 2 3 4 5 6 7 8 9 10 11 12 13 14 15 16 17 18 19 20 21 22 23 24 25 26 27 28 29 30 31     </DataArray>
    <DataArray type="Int32" Name="offsets" format="ascii">
2 4 6 8 10 12 14 16 18 20 22 24 26 28 30 32     </DataArray>
    <DataArray type="UInt8" Name="types" format="ascii">
3 3 3 3 3 3 3 3 3 3 3 3 3 3 3 3     </DataArray>
  </Cells>

  <PointData>
    <DataArray type="Float64" Name="phi_1" format="ascii">
6.725491503498712e+03 
6.747085231495695e+03 
6.747085231495695e+03 
6.811674929605562e+03 
6.811674929605562e+03 
6.918686544436442e+03 
6.918686544436442e+03 
7.067164808506800e+03 
7.067164808506800e+03 
7.255775935649506e+03 
7.255775935649506e+03 
7.482812260995272e+03 
7.482812260995272e+03 
7.746199483583994e+03 
7.746199483583994e+03 
8.043507407932068e+03 
8.043507407932068e+03 
8.371964223535411e+03 
8.371964223535411e+03 
8.728477314018903e+03 
8.728477314018903e+03 
9.109651759691620e+03 
9.109651759691620e+03 
9.511841930392979e+03 
9.511841930392979e+03 
9.931101936976109e+03 
9.931101936976109e+03 
1.036354644283688e+04 
1.036354644283688e+04 
1.080416924738654e+04 
1.080416924738654e+04 
1.125156268823250e+04 
    </DataArray>
    <DataArray type="Float64" Name="phiAnalytic_1" format="ascii">
7.089561312257831e+03 
7.109599742111384e+03 
7.109599742111384e+03 
7.169522286981086e+03 
7.169522286981086e+03 
7.268752548677129e+03 
7.268752548677129e+03 
7.406335967232343e+03 
7.406335967232343e+03 
7.580948920681426e+03 
7.580948920681426e+03 
7.790911353284475e+03 
7.790911353284475e+03 
8.034202820824617e+03 
8.034202820824617e+03 
8.308481810042707e+03 
8.308481810042707e+03 
8.611108158084035e+03 
8.611108158084035e+03 
8.939168367293189e+03 
8.939168367293189e+03 
9.289503581156947e+03 
9.289503581156947e+03 
9.658739959087692e+03 
9.658739959087692e+03 
1.004332116154624e+04 
1.004332116154624e+04 
1.043954263324055e+04 
1.043954263324055e+04 
1.084358735133197e+04 
1.084358735133197e+04 
1.125156268823250e+04 
    </DataArray>
    <DataArray type="Float64" Name="phi_2" format="ascii">
-1.762756060085414e+05 
-1.762676514636901e+05 
-1.762676514636901e+05 
-1.762440101453428e+05 
-1.762440101453428e+05 
-1.762053326749832e+05 
-1.762053326749832e+05 
-1.761526514826065e+05 
-1.761526514826065e+05 
-1.760873109621445e+05 
-1.760873109621445e+05 
-1.760108837791303e+05 
-1.760108837791303e+05 
-1.759250834133514e+05 
-1.759250834133514e+05 
-1.758316817310564e+05 
-1.758316817310564e+05 
-1.757324378984607e+05 
-1.757324378984607e+05 
-1.756290420989846e+05 
-1.756290420989846e+05 
-1.755230748999190e+05 
-1.755230748999190e+05 
-1.754159813585705e+05 
-1.754159813585705e+05 
-1.753090572347892e+05 
-1.753090572347892e+05 
-1.752034463262932e+05 
-1.752034463262932e+05 
-1.751001402486105e+05 
-1.751001402486105e+05 
-1.750000000000000e+05 
    </DataArray>
    <DataArray type="Float64" Name="phiAnalytic_2" format="ascii">
-1.761449257908696e+05 
-1.761379293668639e+05 
-1.761379293668639e+05 
-1.761171244433680e+05 
-1.761171244433680e+05 
-1.760830514334409e+05 
-1.760830514334409e+05 
-1.760365707054918e+05 
-1.760365707054918e+05 
-1.759788079401606e+05 
-1.759788079401606e+05 
-1.759110879311248e+05 
-1.759110879311248e+05 
-1.758348643981384e+05 
-1.758348643981384e+05 
-1.757516526299748e+05 
-1.757516526299748e+05 
-1.756629701047250e+05 
-1.756629701047250e+05 
-1.755702881865010e+05 
-1.755702881865010e+05 
-1.754749960481432e+05 
-1.754749960481432e+05 
-1.753783764262446e+05 
-1.753783764262446e+05 
-1.752815917974918e+05 
-1.752815917974918e+05 
-1.751856790486785e+05 
-1.751856790486785e+05 
-1.750915505899359e+05 
-1.750915505899359e+05 
-1.750000000000000e+05 
    </DataArray>
  </PointData>
  <CellData>
    <DataArray type="Float64" Name="Owner" format="ascii">
0.000000000000000e+00 
0.000000000000000e+00 
0.000000000000000e+00 
0.000000000000000e+00 
0.000000000000000e+00 
0.000000000000000e+00 
0.000000000000000e+00 
0.000000000000000e+00 
0.000000000000000e+00 
0.000000000000000e+00 
0.000000000000000e+00 
0.000000000000000e+00 
0.000000000000000e+00 
0.000000000000000e+00 
0.000000000000000e+00 
0.000000000000000e+00 
0.000000000000000e+00 
0.000000000000000e+00 
0.000000000000000e+00 
0.000000000000000e+00 
0.000000000000000e+00 
0.000000000000000e+00 
0.000000000000000e+00 
0.000000000000000e+00 
0.000000000000000e+00 
0.000000000000000e+00 
0.000000000000000e+00 
0.000000000000000e+00 
0.000000000000000e+00 
0.000000000000000e+00 
0.000000000000000e+00 
0.000000000000000e+00 
    </DataArray>
  </CellData>
</Piece>
</UnstructuredGrid>
</VTKFile>
