<?xml version="1.0" ?> 
<!-- 
# vtk DataFile Version 3.0
-->
<VTKFile type="UnstructuredGrid" version="0.1" compressor="vtkZLibDataCompressor" byte_order="LittleEndian">
<UnstructuredGrid>
<FieldData>
<DataArray type="Float32" Name="TIME" NumberOfTuples="1" format="ascii">818.452380955</DataArray>
</FieldData>
<Piece NumberOfPoints="32" NumberOfCells="16" >
  <Points>
    <DataArray type="Float64" NumberOfComponents="3" format="ascii">
0.000000000000000e+00 0.000000000000000e+00 0.000000000000000e+00 
6.250000000000000e-05 0.000000000000000e+00 0.000000000000000e+00 
6.250000000000000e-05 0.000000000000000e+00 0.000000000000000e+00 
1.250000000000000e-04 0.000000000000000e+00 0.000000000000000e+00 
1.250000000000000e-04 0.000000000000000e+00 0.000000000000000e+00 
1.875000000000000e-04 0.000000000000000e+00 0.000000000000000e+00 
1.875000000000000e-04 0.000000000000000e+00 0.000000000000000e+00 
2.500000000000000e-04 0.000000000000000e+00 0.000000000000000e+00 
2.500000000000000e-04 0.000000000000000e+00 0.000000000000000e+00 
3.125000000000000e-04 0.000000000000000e+00 0.000000000000000e+00 
3.125000000000000e-04 0.000000000000000e+00 0.000000000000000e+00 
3.750000000000000e-04 0.000000000000000e+00 0.000000000000000e+00 
3.750000000000000e-04 0.000000000000000e+00 0.000000000000000e+00 
4.375000000000000e-04 0.000000000000000e+00 0.000000000000000e+00 
4.375000000000000e-04 0.000000000000000e+00 0.000000000000000e+00 
5.000000000000000e-04 0.000000000000000e+00 0.000000000000000e+00 
5.000000000000000e-04 0.000000000000000e+00 0.000000000000000e+00 
5.625000000000001e-04 0.000000000000000e+00 0.000000000000000e+00 
5.625000000000001e-04 0.000000000000000e+00 0.000000000000000e+00 
6.250000000000000e-04 0.000000000000000e+00 0.000000000000000e+00 
6.250000000000000e-04 0.000000000000000e+00 0.000000000000000e+00 
6.875000000000000e-04 0.000000000000000e+00 0.000000000000000e+00 
6.875000000000000e-04 0.000000000000000e+00 0.000000000000000e+00 
7.500000000000000e-04 0.000000000000000e+00 0.000000000000000e+00 
7.500000000000000e-04 0.000000000000000e+00 0.000000000000000e+00 
8.125000000000001e-04 0.000000000000000e+00 0.000000000000000e+00 
8.125000000000001e-04 0.000000000000000e+00 0.000000000000000e+00 
8.750000000000000e-04 0.000000000000000e+00 0.000000000000000e+00 
8.750000000000000e-04 0.000000000000000e+00 0.000000000000000e+00 
9.375000000000000e-04 0.000000000000000e+00 0.000000000000000e+00 
9.375000000000000e-04 0.000000000000000e+00 0.000000000000000e+00 
1.000000000000000e-03 0.000000000000000e+00 0.000000000000000e+00 
    </DataArray>
  </Points>

  <Cells>
    <DataArray type="Int32" Name="connectivity" format="ascii">
0 1 2 3 4 5 6 7 8 9 10 11 12 13 14 15 16 17 18 19 20 21 22 23 24 25 26 27 28 29 30 31     </DataArray>
    <DataArray type="Int32" Name="offsets" format="ascii">
2 4 6 8 10 12 14 16 18 20 22 24 26 28 30 32     </DataArray>
    <DataArray type="UInt8" Name="types" format="ascii">
3 3 3 3 3 3 3 3 3 3 3 3 3 3 3 3     </DataArray>
  </Cells>

  <PointData>
    <DataArray type="Float64" Name="phi_1" format="ascii">
8.306039831036331e+03 
8.320198738471168e+03 
8.320198738471168e+03 
8.362540840328178e+03 
8.362540840328178e+03 
8.432663428152962e+03 
8.432663428152962e+03 
8.529899167789612e+03 
8.529899167789612e+03 
8.653321877119317e+03 
8.653321877119317e+03 
8.801754631136977e+03 
8.801754631136977e+03 
8.973780171618449e+03 
8.973780171618449e+03 
9.167753678559468e+03 
9.167753678559468e+03 
9.381817568939341e+03 
9.381817568939341e+03 
9.613919337443720e+03 
9.613919337443720e+03 
9.861828207123961e+03 
9.861828207123961e+03 
1.012316599838586e+04 
1.012316599838586e+04 
1.039539322552785e+04 
1.039539322552785e+04 
1.067597252007820e+04 
1.067597252007820e+04 
1.096186834301028e+04 
1.096186834301028e+04 
1.125156268823250e+04 
    </DataArray>
    <DataArray type="Float64" Name="phiAnalytic_1" format="ascii">
8.631036408592019e+03 
8.643654916218253e+03 
8.643654916218253e+03 
8.681388919645491e+03 
8.681388919645491e+03 
8.743875030501640e+03 
8.743875030501640e+03 
8.830511490200412e+03 
8.830511490200412e+03 
8.940463963757002e+03 
8.940463963757002e+03 
9.072673573040007e+03 
9.072673573040007e+03 
9.225867092254413e+03 
9.225867092254413e+03 
9.398569207647706e+03 
9.398569207647706e+03 
9.589116723556936e+03 
9.589116723556936e+03 
9.795674578159726e+03 
9.795674578159726e+03 
1.001625351483787e+04 
1.001625351483787e+04 
1.024872923907938e+04 
1.024872923907938e+04 
1.049086287649006e+04 
1.049086287649006e+04 
1.074032253490187e+04 
1.074032253490187e+04 
1.099470576287817e+04 
1.099470576287817e+04 
1.125156268823250e+04 
    </DataArray>
    <DataArray type="Float64" Name="phi_2" format="ascii">
-1.757523814953990e+05 
-1.757481571746520e+05 
-1.757481571746520e+05 
-1.757355672771406e+05 
-1.757355672771406e+05 
-1.757148571885896e+05 
-1.757148571885896e+05 
-1.756864235536971e+05 
-1.756864235536971e+05 
-1.756507969922158e+05 
-1.756507969922158e+05 
-1.756086201318079e+05 
-1.756086201318079e+05 
-1.755606227766477e+05 
-1.755606227766477e+05 
-1.755075960681339e+05 
-1.755075960681339e+05 
-1.754503673172981e+05 
-1.754503673172981e+05 
-1.753897768629366e+05 
-1.753897768629366e+05 
-1.753266578947187e+05 
-1.753266578947187e+05 
-1.752618198042453e+05 
-1.752618198042453e+05 
-1.751960351190424e+05 
-1.751960351190424e+05 
-1.751300303104265e+05 
-1.751300303104265e+05 
-1.750644786025333e+05 
-1.750644786025333e+05 
-1.750000000000000e+05 
    </DataArray>
    <DataArray type="Float64" Name="phiAnalytic_2" format="ascii">
-1.756572401272511e+05 
-1.756536187597033e+05 
-1.756536187597033e+05 
-1.756428209900465e+05 
-1.756428209900465e+05 
-1.756250430752393e+05 
-1.756250430752393e+05 
-1.756006032064001e+05 
-1.756006032064001e+05 
-1.755699289454152e+05 
-1.755699289454152e+05 
-1.755335411047023e+05 
-1.755335411047023e+05 
-1.754920352927858e+05 
-1.754920352927858e+05 
-1.754460624036043e+05 
-1.754460624036043e+05 
-1.753963092445930e+05 
-1.753963092445930e+05 
-1.753434803100560e+05 
-1.753434803100560e+05 
-1.752882814548208e+05 
-1.752882814548208e+05 
-1.752314059515188e+05 
-1.752314059515188e+05 
-1.751735231586205e+05 
-1.751735231586205e+05 
-1.751152698098347e+05 
-1.751152698098347e+05 
-1.750572437709689e+05 
-1.750572437709689e+05 
-1.750000000000000e+05 
    </DataArray>
  </PointData>
  <CellData>
    <DataArray type="Float64" Name="Owner" format="ascii">
0.000000000000000e+00 
0.000000000000000e+00 
0.000000000000000e+00 
0.000000000000000e+00 
0.000000000000000e+00 
0.000000000000000e+00 
0.000000000000000e+00 
0.000000000000000e+00 
0.000000000000000e+00 
0.000000000000000e+00 
0.000000000000000e+00 
0.000000000000000e+00 
0.000000000000000e+00 
0.000000000000000e+00 
0.000000000000000e+00 
0.000000000000000e+00 
0.000000000000000e+00 
0.000000000000000e+00 
0.000000000000000e+00 
0.000000000000000e+00 
0.000000000000000e+00 
0.000000000000000e+00 
0.000000000000000e+00 
0.000000000000000e+00 
0.000000000000000e+00 
0.000000000000000e+00 
0.000000000000000e+00 
0.000000000000000e+00 
0.000000000000000e+00 
0.000000000000000e+00 
0.000000000000000e+00 
0.000000000000000e+00 
    </DataArray>
  </CellData>
</Piece>
</UnstructuredGrid>
</VTKFile>
