<?xml version="1.0" ?> 
<!-- 
# vtk DataFile Version 3.0
-->
<VTKFile type="UnstructuredGrid" version="0.1" compressor="vtkZLibDataCompressor" byte_order="LittleEndian">
<UnstructuredGrid>
<FieldData>
<DataArray type="Float32" Name="TIME" NumberOfTuples="1" format="ascii">520.833333335</DataArray>
</FieldData>
<Piece NumberOfPoints="32" NumberOfCells="16" >
  <Points>
    <DataArray type="Float64" NumberOfComponents="3" format="ascii">
0.000000000000000e+00 0.000000000000000e+00 0.000000000000000e+00 
6.250000000000000e-05 0.000000000000000e+00 0.000000000000000e+00 
6.250000000000000e-05 0.000000000000000e+00 0.000000000000000e+00 
1.250000000000000e-04 0.000000000000000e+00 0.000000000000000e+00 
1.250000000000000e-04 0.000000000000000e+00 0.000000000000000e+00 
1.875000000000000e-04 0.000000000000000e+00 0.000000000000000e+00 
1.875000000000000e-04 0.000000000000000e+00 0.000000000000000e+00 
2.500000000000000e-04 0.000000000000000e+00 0.000000000000000e+00 
2.500000000000000e-04 0.000000000000000e+00 0.000000000000000e+00 
3.125000000000000e-04 0.000000000000000e+00 0.000000000000000e+00 
3.125000000000000e-04 0.000000000000000e+00 0.000000000000000e+00 
3.750000000000000e-04 0.000000000000000e+00 0.000000000000000e+00 
3.750000000000000e-04 0.000000000000000e+00 0.000000000000000e+00 
4.375000000000000e-04 0.000000000000000e+00 0.000000000000000e+00 
4.375000000000000e-04 0.000000000000000e+00 0.000000000000000e+00 
5.000000000000000e-04 0.000000000000000e+00 0.000000000000000e+00 
5.000000000000000e-04 0.000000000000000e+00 0.000000000000000e+00 
5.625000000000001e-04 0.000000000000000e+00 0.000000000000000e+00 
5.625000000000001e-04 0.000000000000000e+00 0.000000000000000e+00 
6.250000000000000e-04 0.000000000000000e+00 0.000000000000000e+00 
6.250000000000000e-04 0.000000000000000e+00 0.000000000000000e+00 
6.875000000000000e-04 0.000000000000000e+00 0.000000000000000e+00 
6.875000000000000e-04 0.000000000000000e+00 0.000000000000000e+00 
7.500000000000000e-04 0.000000000000000e+00 0.000000000000000e+00 
7.500000000000000e-04 0.000000000000000e+00 0.000000000000000e+00 
8.125000000000001e-04 0.000000000000000e+00 0.000000000000000e+00 
8.125000000000001e-04 0.000000000000000e+00 0.000000000000000e+00 
8.750000000000000e-04 0.000000000000000e+00 0.000000000000000e+00 
8.750000000000000e-04 0.000000000000000e+00 0.000000000000000e+00 
9.375000000000000e-04 0.000000000000000e+00 0.000000000000000e+00 
9.375000000000000e-04 0.000000000000000e+00 0.000000000000000e+00 
1.000000000000000e-03 0.000000000000000e+00 0.000000000000000e+00 
    </DataArray>
  </Points>

  <Cells>
    <DataArray type="Int32" Name="connectivity" format="ascii">
0 1 2 3 4 5 6 7 8 9 10 11 12 13 14 15 16 17 18 19 20 21 22 23 24 25 26 27 28 29 30 31     </DataArray>
    <DataArray type="Int32" Name="offsets" format="ascii">
2 4 6 8 10 12 14 16 18 20 22 24 26 28 30 32     </DataArray>
    <DataArray type="UInt8" Name="types" format="ascii">
3 3 3 3 3 3 3 3 3 3 3 3 3 3 3 3     </DataArray>
  </Cells>

  <PointData>
    <DataArray type="Float64" Name="phi_1" format="ascii">
6.032723499080055e+03 
6.057409554607420e+03 
6.057409554607420e+03 
6.131266887660420e+03 
6.131266887660420e+03 
6.253691761049288e+03 
6.253691761049288e+03 
6.423674142963197e+03 
6.423674142963197e+03 
6.639793058101845e+03 
6.639793058101845e+03 
6.900212043206352e+03 
6.900212043206352e+03 
7.202676270361844e+03 
7.202676270361844e+03 
7.544513281193208e+03 
7.544513281193208e+03 
7.922638202489376e+03 
7.922638202489376e+03 
8.333568140581501e+03 
8.333568140581501e+03 
8.773435017585170e+03 
8.773435017585170e+03 
9.238043852995432e+03 
9.238043852995432e+03 
9.722800552928360e+03 
9.722800552928360e+03 
1.022318481736466e+04 
1.022318481736466e+04 
1.073317947435569e+04 
1.073317947435569e+04 
1.125156268823250e+04 
    </DataArray>
    <DataArray type="Float64" Name="phiAnalytic_1" format="ascii">
6.395797670551084e+03 
6.419168511093321e+03 
6.419168511093321e+03 
6.489056905651840e+03 
6.489056905651840e+03 
6.604792549941713e+03 
6.604792549941713e+03 
6.765265180241052e+03 
6.765265180241052e+03 
6.968934892613711e+03 
6.968934892613711e+03 
7.213846496336911e+03 
7.213846496336911e+03 
7.497647804354570e+03 
7.497647804354570e+03 
7.817611731036364e+03 
7.817611731036364e+03 
8.170662032232815e+03 
8.170662032232815e+03 
8.553402484799317e+03 
8.553402484799317e+03 
8.962149263017045e+03 
8.962149263017045e+03 
9.392966228619149e+03 
9.392966228619149e+03 
9.841702810684124e+03 
9.841702810684124e+03 
1.030403411294072e+04 
1.030403411294072e+04 
1.077550285059975e+04 
1.077550285059975e+04 
1.125156268823250e+04 
    </DataArray>
    <DataArray type="Float64" Name="phi_2" format="ascii">
-1.765450700498237e+05 
-1.765349335983809e+05 
-1.765349335983809e+05 
-1.765048528860444e+05 
-1.765048528860444e+05 
-1.764557848530888e+05 
-1.764557848530888e+05 
-1.763892330759257e+05 
-1.763892330759257e+05 
-1.763071277039577e+05 
-1.763071277039577e+05 
-1.762116861398992e+05 
-1.762116861398992e+05 
-1.761052735821632e+05 
-1.761052735821632e+05 
-1.759902786048699e+05 
-1.759902786048699e+05 
-1.758690130464918e+05 
-1.758690130464918e+05 
-1.757436396041001e+05 
-1.757436396041001e+05 
-1.756161258788065e+05 
-1.756161258788065e+05 
-1.754882210807751e+05 
-1.754882210807751e+05 
-1.753614495007529e+05 
-1.753614495007529e+05 
-1.752371183240159e+05 
-1.752371183240159e+05 
-1.751163257100331e+05 
-1.751163257100331e+05 
-1.750000000000000e+05 
    </DataArray>
    <DataArray type="Float64" Name="phiAnalytic_2" format="ascii">
-1.764002002923751e+05 
-1.763911589653323e+05 
-1.763911589653323e+05 
-1.763643167969418e+05 
-1.763643167969418e+05 
-1.763204954290333e+05 
-1.763204954290333e+05 
-1.762609890705926e+05 
-1.762609890705926e+05 
-1.761874649653116e+05 
-1.761874649653116e+05 
-1.761018467923257e+05 
-1.761018467923257e+05 
-1.760061964966236e+05 
-1.760061964966236e+05 
-1.759026072477764e+05 
-1.759026072477764e+05 
-1.757931157382837e+05 
-1.757931157382837e+05 
-1.756796373394638e+05 
-1.756796373394638e+05 
-1.755639237930272e+05 
-1.755639237930272e+05 
-1.754475405980702e+05 
-1.754475405980702e+05 
-1.753318600342313e+05 
-1.753318600342313e+05 
-1.752180655450551e+05 
-1.752180655450551e+05 
-1.751071636168676e+05 
-1.751071636168676e+05 
-1.750000000000000e+05 
    </DataArray>
  </PointData>
  <CellData>
    <DataArray type="Float64" Name="Owner" format="ascii">
0.000000000000000e+00 
0.000000000000000e+00 
0.000000000000000e+00 
0.000000000000000e+00 
0.000000000000000e+00 
0.000000000000000e+00 
0.000000000000000e+00 
0.000000000000000e+00 
0.000000000000000e+00 
0.000000000000000e+00 
0.000000000000000e+00 
0.000000000000000e+00 
0.000000000000000e+00 
0.000000000000000e+00 
0.000000000000000e+00 
0.000000000000000e+00 
0.000000000000000e+00 
0.000000000000000e+00 
0.000000000000000e+00 
0.000000000000000e+00 
0.000000000000000e+00 
0.000000000000000e+00 
0.000000000000000e+00 
0.000000000000000e+00 
0.000000000000000e+00 
0.000000000000000e+00 
0.000000000000000e+00 
0.000000000000000e+00 
0.000000000000000e+00 
0.000000000000000e+00 
0.000000000000000e+00 
0.000000000000000e+00 
    </DataArray>
  </CellData>
</Piece>
</UnstructuredGrid>
</VTKFile>
