<?xml version="1.0" ?> 
<!-- 
# vtk DataFile Version 3.0
-->
<VTKFile type="UnstructuredGrid" version="0.1" compressor="vtkZLibDataCompressor" byte_order="LittleEndian">
<UnstructuredGrid>
<FieldData>
<DataArray type="Float32" Name="TIME" NumberOfTuples="1" format="ascii">595.23809524</DataArray>
</FieldData>
<Piece NumberOfPoints="64" NumberOfCells="32" >
  <Points>
    <DataArray type="Float64" NumberOfComponents="3" format="ascii">
0.000000000000000e+00 0.000000000000000e+00 0.000000000000000e+00 
3.125000000000000e-05 0.000000000000000e+00 0.000000000000000e+00 
3.125000000000000e-05 0.000000000000000e+00 0.000000000000000e+00 
6.250000000000000e-05 0.000000000000000e+00 0.000000000000000e+00 
6.250000000000000e-05 0.000000000000000e+00 0.000000000000000e+00 
9.375000000000000e-05 0.000000000000000e+00 0.000000000000000e+00 
9.375000000000000e-05 0.000000000000000e+00 0.000000000000000e+00 
1.250000000000000e-04 0.000000000000000e+00 0.000000000000000e+00 
1.250000000000000e-04 0.000000000000000e+00 0.000000000000000e+00 
1.562500000000000e-04 0.000000000000000e+00 0.000000000000000e+00 
1.562500000000000e-04 0.000000000000000e+00 0.000000000000000e+00 
1.875000000000000e-04 0.000000000000000e+00 0.000000000000000e+00 
1.875000000000000e-04 0.000000000000000e+00 0.000000000000000e+00 
2.187500000000000e-04 0.000000000000000e+00 0.000000000000000e+00 
2.187500000000000e-04 0.000000000000000e+00 0.000000000000000e+00 
2.500000000000000e-04 0.000000000000000e+00 0.000000000000000e+00 
2.500000000000000e-04 0.000000000000000e+00 0.000000000000000e+00 
2.812500000000000e-04 0.000000000000000e+00 0.000000000000000e+00 
2.812500000000000e-04 0.000000000000000e+00 0.000000000000000e+00 
3.125000000000000e-04 0.000000000000000e+00 0.000000000000000e+00 
3.125000000000000e-04 0.000000000000000e+00 0.000000000000000e+00 
3.437500000000000e-04 0.000000000000000e+00 0.000000000000000e+00 
3.437500000000000e-04 0.000000000000000e+00 0.000000000000000e+00 
3.750000000000000e-04 0.000000000000000e+00 0.000000000000000e+00 
3.750000000000000e-04 0.000000000000000e+00 0.000000000000000e+00 
4.062500000000000e-04 0.000000000000000e+00 0.000000000000000e+00 
4.062500000000000e-04 0.000000000000000e+00 0.000000000000000e+00 
4.375000000000000e-04 0.000000000000000e+00 0.000000000000000e+00 
4.375000000000000e-04 0.000000000000000e+00 0.000000000000000e+00 
4.687500000000000e-04 0.000000000000000e+00 0.000000000000000e+00 
4.687500000000000e-04 0.000000000000000e+00 0.000000000000000e+00 
5.000000000000000e-04 0.000000000000000e+00 0.000000000000000e+00 
5.000000000000000e-04 0.000000000000000e+00 0.000000000000000e+00 
5.312500000000000e-04 0.000000000000000e+00 0.000000000000000e+00 
5.312500000000000e-04 0.000000000000000e+00 0.000000000000000e+00 
5.625000000000001e-04 0.000000000000000e+00 0.000000000000000e+00 
5.625000000000001e-04 0.000000000000000e+00 0.000000000000000e+00 
5.937500000000000e-04 0.000000000000000e+00 0.000000000000000e+00 
5.937500000000000e-04 0.000000000000000e+00 0.000000000000000e+00 
6.250000000000000e-04 0.000000000000000e+00 0.000000000000000e+00 
6.250000000000000e-04 0.000000000000000e+00 0.000000000000000e+00 
6.562500000000000e-04 0.000000000000000e+00 0.000000000000000e+00 
6.562500000000000e-04 0.000000000000000e+00 0.000000000000000e+00 
6.875000000000000e-04 0.000000000000000e+00 0.000000000000000e+00 
6.875000000000000e-04 0.000000000000000e+00 0.000000000000000e+00 
7.187500000000000e-04 0.000000000000000e+00 0.000000000000000e+00 
7.187500000000000e-04 0.000000000000000e+00 0.000000000000000e+00 
7.500000000000000e-04 0.000000000000000e+00 0.000000000000000e+00 
7.500000000000000e-04 0.000000000000000e+00 0.000000000000000e+00 
7.812500000000000e-04 0.000000000000000e+00 0.000000000000000e+00 
7.812500000000000e-04 0.000000000000000e+00 0.000000000000000e+00 
8.125000000000001e-04 0.000000000000000e+00 0.000000000000000e+00 
8.125000000000001e-04 0.000000000000000e+00 0.000000000000000e+00 
8.437500000000000e-04 0.000000000000000e+00 0.000000000000000e+00 
8.437500000000000e-04 0.000000000000000e+00 0.000000000000000e+00 
8.750000000000000e-04 0.000000000000000e+00 0.000000000000000e+00 
8.750000000000000e-04 0.000000000000000e+00 0.000000000000000e+00 
9.062500000000000e-04 0.000000000000000e+00 0.000000000000000e+00 
9.062500000000000e-04 0.000000000000000e+00 0.000000000000000e+00 
9.375000000000000e-04 0.000000000000000e+00 0.000000000000000e+00 
9.375000000000000e-04 0.000000000000000e+00 0.000000000000000e+00 
9.687500000000000e-04 0.000000000000000e+00 0.000000000000000e+00 
9.687500000000000e-04 0.000000000000000e+00 0.000000000000000e+00 
1.000000000000000e-03 0.000000000000000e+00 0.000000000000000e+00 
    </DataArray>
  </Points>

  <Cells>
    <DataArray type="Int32" Name="connectivity" format="ascii">
0 1 2 3 4 5 6 7 8 9 10 11 12 13 14 15 16 17 18 19 20 21 22 23 24 25 26 27 28 29 30 31 32 33 34 35 36 37 38 39 40 41 42 43 44 45 46 47 48 49 50 51 52 53 54 55 56 57 58 59 60 61 62 63     </DataArray>
    <DataArray type="Int32" Name="offsets" format="ascii">
2 4 6 8 10 12 14 16 18 20 22 24 26 28 30 32 34 36 38 40 42 44 46 48 50 52 54 56 58 60 62 64     </DataArray>
    <DataArray type="UInt8" Name="types" format="ascii">
3 3 3 3 3 3 3 3 3 3 3 3 3 3 3 3 3 3 3 3 3 3 3 3 3 3 3 3 3 3 3 3     </DataArray>
  </Cells>

  <PointData>
    <DataArray type="Float64" Name="phi_1" format="ascii">
6.899490161892277e+03 
6.904720555392153e+03 
6.904720555392153e+03 
6.920399383099479e+03 
6.920399383099479e+03 
6.946489610822669e+03 
6.946489610822669e+03 
6.982929595618273e+03 
6.982929595618273e+03 
7.029633207156573e+03 
7.029633207156573e+03 
7.086489998217988e+03 
7.086489998217988e+03 
7.153365424855671e+03 
7.153365424855671e+03 
7.230101116849219e+03 
7.230101116849219e+03 
7.316515199121895e+03 
7.316515199121895e+03 
7.412402664793438e+03 
7.412402664793438e+03 
7.517535800503615e+03 
7.517535800503615e+03 
7.631664664549896e+03 
7.631664664549896e+03 
7.754517618260938e+03 
7.754517618260938e+03 
7.885801910863745e+03 
7.885801910863745e+03 
8.025204317907521e+03 
8.025204317907521e+03 
8.172391833091373e+03 
8.172391833091373e+03 
8.327012413088956e+03 
8.327012413088956e+03 
8.488695774727503e+03 
8.488695774727503e+03 
8.657054243521374e+03 
8.657054243521374e+03 
8.831683652551161e+03 
8.831683652551161e+03 
9.012164289359922e+03 
9.012164289359922e+03 
9.198061892055433e+03 
9.198061892055433e+03 
9.388928681133575e+03 
9.388928681133575e+03 
9.584304467410835e+03 
9.584304467410835e+03 
9.783717671869172e+03 
9.783717671869172e+03 
9.986686863281477e+03 
9.986686863281477e+03 
1.019272051431421e+04 
1.019272051431421e+04 
1.040132363034932e+04 
1.040132363034932e+04 
1.061197860212627e+04 
1.061197860212627e+04 
1.082422336121308e+04 
1.082422336121308e+04 
1.103736281525160e+04 
1.103736281525160e+04 
1.125156268823250e+04 
    </DataArray>
    <DataArray type="Float64" Name="phiAnalytic_1" format="ascii">
7.089561312257831e+03 
7.094573934947584e+03 
7.094573934947584e+03 
7.109599742111384e+03 
7.109599742111384e+03 
7.134602579765170e+03 
7.134602579765170e+03 
7.169522286981086e+03 
7.169522286981086e+03 
7.214274839238065e+03 
7.214274839238065e+03 
7.268752548677129e+03 
7.268752548677129e+03 
7.332824320825899e+03 
7.332824320825899e+03 
7.406335967232343e+03 
7.406335967232343e+03 
7.489110573323600e+03 
7.489110573323600e+03 
7.580948920681426e+03 
7.580948920681426e+03 
7.681629962802026e+03 
7.681629962802026e+03 
7.790911353284475e+03 
7.790911353284475e+03 
7.908530025269032e+03 
7.908530025269032e+03 
8.034202820824617e+03 
8.034202820824617e+03 
8.167627168863634e+03 
8.167627168863634e+03 
8.308481810042707e+03 
8.308481810042707e+03 
8.456427566990007e+03 
8.456427566990007e+03 
8.611108158084035e+03 
8.611108158084035e+03 
8.772151052895424e+03 
8.772151052895424e+03 
8.939168367293189e+03 
8.939168367293189e+03 
9.111757796109803e+03 
9.111757796109803e+03 
9.289503581156947e+03 
9.289503581156947e+03 
9.471977512285199e+03 
9.471977512285199e+03 
9.658739959087692e+03 
9.658739959087692e+03 
9.849340930759936e+03 
9.849340930759936e+03 
1.004332116154624e+04 
1.004332116154624e+04 
1.024021321912795e+04 
1.024021321912795e+04 
1.043954263324055e+04 
1.043954263324055e+04 
1.064082904174572e+04 
1.064082904174572e+04 
1.084358735133197e+04 
1.084358735133197e+04 
1.104732890997244e+04 
1.104732890997244e+04 
1.125156268823250e+04 
    </DataArray>
    <DataArray type="Float64" Name="phi_2" format="ascii">
-1.762122900823330e+05 
-1.762104111666727e+05 
-1.762104111666727e+05 
-1.762047873831801e+05 
-1.762047873831801e+05 
-1.761954573847129e+05 
-1.761954573847129e+05 
-1.761824848098257e+05 
-1.761824848098257e+05 
-1.761659571398726e+05 
-1.761659571398726e+05 
-1.761459841596825e+05 
-1.761459841596825e+05 
-1.761226960778485e+05 
-1.761226960778485e+05 
-1.760962413724954e+05 
-1.760962413724954e+05 
-1.760667844343927e+05 
-1.760667844343927e+05 
-1.760345030813813e+05 
-1.760345030813813e+05 
-1.759995860165153e+05 
-1.759995860165153e+05 
-1.759622302975590e+05 
-1.759622302975590e+05 
-1.759226388781730e+05 
-1.759226388781730e+05 
-1.758810182720165e+05 
-1.758810182720165e+05 
-1.758375763808528e+05 
-1.758375763808528e+05 
-1.757925205172724e+05 
-1.757925205172724e+05 
-1.757460556424637e+05 
-1.757460556424637e+05 
-1.756983828300380e+05 
-1.756983828300380e+05 
-1.756496979586063e+05 
-1.756496979586063e+05 
-1.756001906288049e+05 
-1.756001906288049e+05 
-1.755500432948656e+05 
-1.755500432948656e+05 
-1.754994305966113e+05 
-1.754994305966113e+05 
-1.754485188748079e+05 
-1.754485188748079e+05 
-1.753974658511071e+05 
-1.753974658511071e+05 
-1.753464204526948e+05 
-1.753464204526948e+05 
-1.752955227629440e+05 
-1.752955227629440e+05 
-1.752449040755930e+05 
-1.752449040755930e+05 
-1.751946870472058e+05 
-1.751946870472058e+05 
-1.751449858847337e+05 
-1.751449858847337e+05 
-1.750959067237347e+05 
-1.750959067237347e+05 
-1.750475475611018e+05 
-1.750475475611018e+05 
-1.750000000000000e+05 
    </DataArray>
    <DataArray type="Float64" Name="phiAnalytic_2" format="ascii">
-1.761449257908696e+05 
-1.761431737791797e+05 
-1.761431737791797e+05 
-1.761379293668639e+05 
-1.761379293668639e+05 
-1.761292272193119e+05 
-1.761292272193119e+05 
-1.761171244433680e+05 
-1.761171244433680e+05 
-1.761016996096759e+05 
-1.761016996096759e+05 
-1.760830514334409e+05 
-1.760830514334409e+05 
-1.760612971594530e+05 
-1.760612971594530e+05 
-1.760365707054918e+05 
-1.760365707054918e+05 
-1.760090206235090e+05 
-1.760090206235090e+05 
-1.759788079401606e+05 
-1.759788079401606e+05 
-1.759461039374839e+05 
-1.759461039374839e+05 
-1.759110879311248e+05 
-1.759110879311248e+05 
-1.758739450979946e+05 
-1.758739450979946e+05 
-1.758348643981384e+05 
-1.758348643981384e+05 
-1.757940366275248e+05 
-1.757940366275248e+05 
-1.757516526299748e+05 
-1.757516526299748e+05 
-1.757079016880399e+05 
-1.757079016880399e+05 
-1.756629701047250e+05 
-1.756629701047250e+05 
-1.756170399808236e+05 
-1.756170399808236e+05 
-1.755702881865010e+05 
-1.755702881865010e+05 
-1.755228855207168e+05 
-1.755228855207168e+05 
-1.754749960481432e+05 
-1.754749960481432e+05 
-1.754267766003647e+05 
-1.754267766003647e+05 
-1.753783764262446e+05 
-1.753783764262446e+05 
-1.753299369752884e+05 
-1.753299369752884e+05 
-1.752815917974918e+05 
-1.752815917974918e+05 
-1.752334665433888e+05 
-1.752334665433888e+05 
-1.751856790486785e+05 
-1.751856790486785e+05 
-1.751383394887905e+05 
-1.751383394887905e+05 
-1.750915505899359e+05 
-1.750915505899359e+05 
-1.750454078845016e+05 
-1.750454078845016e+05 
-1.750000000000000e+05 
    </DataArray>
  </PointData>
  <CellData>
    <DataArray type="Float64" Name="Owner" format="ascii">
0.000000000000000e+00 
0.000000000000000e+00 
0.000000000000000e+00 
0.000000000000000e+00 
0.000000000000000e+00 
0.000000000000000e+00 
0.000000000000000e+00 
0.000000000000000e+00 
0.000000000000000e+00 
0.000000000000000e+00 
0.000000000000000e+00 
0.000000000000000e+00 
0.000000000000000e+00 
0.000000000000000e+00 
0.000000000000000e+00 
0.000000000000000e+00 
0.000000000000000e+00 
0.000000000000000e+00 
0.000000000000000e+00 
0.000000000000000e+00 
0.000000000000000e+00 
0.000000000000000e+00 
0.000000000000000e+00 
0.000000000000000e+00 
0.000000000000000e+00 
0.000000000000000e+00 
0.000000000000000e+00 
0.000000000000000e+00 
0.000000000000000e+00 
0.000000000000000e+00 
0.000000000000000e+00 
0.000000000000000e+00 
0.000000000000000e+00 
0.000000000000000e+00 
0.000000000000000e+00 
0.000000000000000e+00 
0.000000000000000e+00 
0.000000000000000e+00 
0.000000000000000e+00 
0.000000000000000e+00 
0.000000000000000e+00 
0.000000000000000e+00 
0.000000000000000e+00 
0.000000000000000e+00 
0.000000000000000e+00 
0.000000000000000e+00 
0.000000000000000e+00 
0.000000000000000e+00 
0.000000000000000e+00 
0.000000000000000e+00 
0.000000000000000e+00 
0.000000000000000e+00 
0.000000000000000e+00 
0.000000000000000e+00 
0.000000000000000e+00 
0.000000000000000e+00 
0.000000000000000e+00 
0.000000000000000e+00 
0.000000000000000e+00 
0.000000000000000e+00 
0.000000000000000e+00 
0.000000000000000e+00 
0.000000000000000e+00 
0.000000000000000e+00 
    </DataArray>
  </CellData>
</Piece>
</UnstructuredGrid>
</VTKFile>
