<?xml version="1.0" ?> 
<!-- 
# vtk DataFile Version 3.0
-->
<VTKFile type="UnstructuredGrid" version="0.1" compressor="vtkZLibDataCompressor" byte_order="LittleEndian">
<UnstructuredGrid>
<FieldData>
<DataArray type="Float32" Name="TIME" NumberOfTuples="1" format="ascii">260.4166666675</DataArray>
</FieldData>
<Piece NumberOfPoints="64" NumberOfCells="32" >
  <Points>
    <DataArray type="Float64" NumberOfComponents="3" format="ascii">
0.000000000000000e+00 0.000000000000000e+00 0.000000000000000e+00 
3.125000000000000e-05 0.000000000000000e+00 0.000000000000000e+00 
3.125000000000000e-05 0.000000000000000e+00 0.000000000000000e+00 
6.250000000000000e-05 0.000000000000000e+00 0.000000000000000e+00 
6.250000000000000e-05 0.000000000000000e+00 0.000000000000000e+00 
9.375000000000000e-05 0.000000000000000e+00 0.000000000000000e+00 
9.375000000000000e-05 0.000000000000000e+00 0.000000000000000e+00 
1.250000000000000e-04 0.000000000000000e+00 0.000000000000000e+00 
1.250000000000000e-04 0.000000000000000e+00 0.000000000000000e+00 
1.562500000000000e-04 0.000000000000000e+00 0.000000000000000e+00 
1.562500000000000e-04 0.000000000000000e+00 0.000000000000000e+00 
1.875000000000000e-04 0.000000000000000e+00 0.000000000000000e+00 
1.875000000000000e-04 0.000000000000000e+00 0.000000000000000e+00 
2.187500000000000e-04 0.000000000000000e+00 0.000000000000000e+00 
2.187500000000000e-04 0.000000000000000e+00 0.000000000000000e+00 
2.500000000000000e-04 0.000000000000000e+00 0.000000000000000e+00 
2.500000000000000e-04 0.000000000000000e+00 0.000000000000000e+00 
2.812500000000000e-04 0.000000000000000e+00 0.000000000000000e+00 
2.812500000000000e-04 0.000000000000000e+00 0.000000000000000e+00 
3.125000000000000e-04 0.000000000000000e+00 0.000000000000000e+00 
3.125000000000000e-04 0.000000000000000e+00 0.000000000000000e+00 
3.437500000000000e-04 0.000000000000000e+00 0.000000000000000e+00 
3.437500000000000e-04 0.000000000000000e+00 0.000000000000000e+00 
3.750000000000000e-04 0.000000000000000e+00 0.000000000000000e+00 
3.750000000000000e-04 0.000000000000000e+00 0.000000000000000e+00 
4.062500000000000e-04 0.000000000000000e+00 0.000000000000000e+00 
4.062500000000000e-04 0.000000000000000e+00 0.000000000000000e+00 
4.375000000000000e-04 0.000000000000000e+00 0.000000000000000e+00 
4.375000000000000e-04 0.000000000000000e+00 0.000000000000000e+00 
4.687500000000000e-04 0.000000000000000e+00 0.000000000000000e+00 
4.687500000000000e-04 0.000000000000000e+00 0.000000000000000e+00 
5.000000000000000e-04 0.000000000000000e+00 0.000000000000000e+00 
5.000000000000000e-04 0.000000000000000e+00 0.000000000000000e+00 
5.312500000000000e-04 0.000000000000000e+00 0.000000000000000e+00 
5.312500000000000e-04 0.000000000000000e+00 0.000000000000000e+00 
5.625000000000001e-04 0.000000000000000e+00 0.000000000000000e+00 
5.625000000000001e-04 0.000000000000000e+00 0.000000000000000e+00 
5.937500000000000e-04 0.000000000000000e+00 0.000000000000000e+00 
5.937500000000000e-04 0.000000000000000e+00 0.000000000000000e+00 
6.250000000000000e-04 0.000000000000000e+00 0.000000000000000e+00 
6.250000000000000e-04 0.000000000000000e+00 0.000000000000000e+00 
6.562500000000000e-04 0.000000000000000e+00 0.000000000000000e+00 
6.562500000000000e-04 0.000000000000000e+00 0.000000000000000e+00 
6.875000000000000e-04 0.000000000000000e+00 0.000000000000000e+00 
6.875000000000000e-04 0.000000000000000e+00 0.000000000000000e+00 
7.187500000000000e-04 0.000000000000000e+00 0.000000000000000e+00 
7.187500000000000e-04 0.000000000000000e+00 0.000000000000000e+00 
7.500000000000000e-04 0.000000000000000e+00 0.000000000000000e+00 
7.500000000000000e-04 0.000000000000000e+00 0.000000000000000e+00 
7.812500000000000e-04 0.000000000000000e+00 0.000000000000000e+00 
7.812500000000000e-04 0.000000000000000e+00 0.000000000000000e+00 
8.125000000000001e-04 0.000000000000000e+00 0.000000000000000e+00 
8.125000000000001e-04 0.000000000000000e+00 0.000000000000000e+00 
8.437500000000000e-04 0.000000000000000e+00 0.000000000000000e+00 
8.437500000000000e-04 0.000000000000000e+00 0.000000000000000e+00 
8.750000000000000e-04 0.000000000000000e+00 0.000000000000000e+00 
8.750000000000000e-04 0.000000000000000e+00 0.000000000000000e+00 
9.062500000000000e-04 0.000000000000000e+00 0.000000000000000e+00 
9.062500000000000e-04 0.000000000000000e+00 0.000000000000000e+00 
9.375000000000000e-04 0.000000000000000e+00 0.000000000000000e+00 
9.375000000000000e-04 0.000000000000000e+00 0.000000000000000e+00 
9.687500000000000e-04 0.000000000000000e+00 0.000000000000000e+00 
9.687500000000000e-04 0.000000000000000e+00 0.000000000000000e+00 
1.000000000000000e-03 0.000000000000000e+00 0.000000000000000e+00 
    </DataArray>
  </Points>

  <Cells>
    <DataArray type="Int32" Name="connectivity" format="ascii">
0 1 2 3 4 5 6 7 8 9 10 11 12 13 14 15 16 17 18 19 20 21 22 23 24 25 26 27 28 29 30 31 32 33 34 35 36 37 38 39 40 41 42 43 44 45 46 47 48 49 50 51 52 53 54 55 56 57 58 59 60 61 62 63     </DataArray>
    <DataArray type="Int32" Name="offsets" format="ascii">
2 4 6 8 10 12 14 16 18 20 22 24 26 28 30 32 34 36 38 40 42 44 46 48 50 52 54 56 58 60 62 64     </DataArray>
    <DataArray type="UInt8" Name="types" format="ascii">
3 3 3 3 3 3 3 3 3 3 3 3 3 3 3 3 3 3 3 3 3 3 3 3 3 3 3 3 3 3 3 3     </DataArray>
  </Cells>

  <PointData>
    <DataArray type="Float64" Name="phi_1" format="ascii">
2.874191146516013e+03 
2.883174194896089e+03 
2.883174194896089e+03 
2.910124289137064e+03 
2.910124289137064e+03 
2.955043844365621e+03 
2.955043844365621e+03 
3.017935455913976e+03 
3.017935455913976e+03 
3.098799790709722e+03 
3.098799790709722e+03 
3.197632703548210e+03 
3.197632703548210e+03 
3.314421638529270e+03 
3.314421638529270e+03 
3.449141384822842e+03 
3.449141384822842e+03 
3.601749262523527e+03 
3.601749262523527e+03 
3.772179820409911e+03 
3.772179820409911e+03 
3.960339134360602e+03 
3.960339134360602e+03 
4.166098803733404e+03 
4.166098803733404e+03 
4.389289753227262e+03 
4.389289753227262e+03 
4.629695959078730e+03 
4.629695959078730e+03 
4.887048230053490e+03 
4.887048230053490e+03 
5.161018184613525e+03 
5.161018184613525e+03 
5.451212574875768e+03 
5.451212574875768e+03 
5.757168114735176e+03 
5.757168114735176e+03 
6.078346972609731e+03 
6.078346972609731e+03 
6.414133089368232e+03 
6.414133089368232e+03 
6.763829472969906e+03 
6.763829472969906e+03 
7.126656623757008e+03 
7.126656623757008e+03 
7.501752176675924e+03 
7.501752176675924e+03 
7.888172019640792e+03 
7.888172019640792e+03 
8.284892369335697e+03 
8.284892369335697e+03 
8.690815120761072e+03 
8.690815120761072e+03 
9.104767766168083e+03 
9.104767766168083e+03 
9.525531137562491e+03 
9.525531137562491e+03 
9.951767635999357e+03 
9.951767635999357e+03 
1.038233580911554e+04 
1.038233580911554e+04 
1.081513629715697e+04 
1.081513629715697e+04 
1.125156268823250e+04 
    </DataArray>
    <DataArray type="Float64" Name="phiAnalytic_1" format="ascii">
2.957681352131660e+03 
2.967315821365329e+03 
2.967315821365329e+03 
2.996203718041030e+03 
2.996203718041030e+03 
3.044298380044993e+03 
3.044298380044993e+03 
3.111521610958892e+03 
3.111521610958892e+03 
3.197763054271674e+03 
3.197763054271674e+03 
3.302879344077843e+03 
3.302879344077843e+03 
3.426693058351554e+03 
3.426693058351554e+03 
3.568991507339184e+03 
3.568991507339184e+03 
3.729525395345023e+03 
3.729525395345023e+03 
3.908007399066433e+03 
3.908007399066433e+03 
4.104110709555934e+03 
4.104110709555934e+03 
4.317467587757702e+03 
4.317467587757702e+03 
4.547667985317200e+03 
4.547667985317200e+03 
4.794258282950987e+03 
4.794258282950987e+03 
5.056740198070417e+03 
5.056740198070417e+03 
5.334569911584127e+03 
5.334569911584127e+03 
5.627157460891949e+03 
5.627157460891949e+03 
5.933866442084008e+03 
5.933866442084008e+03 
6.254014059353538e+03 
6.254014059353538e+03 
6.586871553723429e+03 
6.586871553723429e+03 
6.931665036496942e+03 
6.931665036496942e+03 
7.287576745513111e+03 
7.287576745513111e+03 
7.653746734471272e+03 
7.653746734471272e+03 
8.029274997453100e+03 
8.029274997453100e+03 
8.413224022488012e+03 
8.413224022488012e+03 
8.804621759755886e+03 
8.804621759755886e+03 
9.202464981977453e+03 
9.202464981977453e+03 
9.605723006880417e+03 
9.605723006880417e+03 
1.001334174451434e+04 
1.001334174451434e+04 
1.042424802577342e+04 
1.042424802577342e+04 
1.083735416291284e+04 
1.083735416291284e+04 
1.125156268823250e+04 
    </DataArray>
    <DataArray type="Float64" Name="phi_2" format="ascii">
-1.783829336630406e+05 
-1.783751903575974e+05 
-1.783751903575974e+05 
-1.783521040073344e+05 
-1.783521040073344e+05 
-1.783140968776383e+05 
-1.783140968776383e+05 
-1.782618456773812e+05 
-1.782618456773812e+05 
-1.781962443915262e+05 
-1.781962443915262e+05 
-1.781183584000734e+05 
-1.781183584000734e+05 
-1.780293745909136e+05 
-1.780293745909136e+05 
-1.779305519205516e+05 
-1.779305519205516e+05 
-1.778231760431563e+05 
-1.778231760431563e+05 
-1.777085204841040e+05 
-1.777085204841040e+05 
-1.775878156446377e+05 
-1.775878156446377e+05 
-1.774622258888096e+05 
-1.774622258888096e+05 
-1.773328341912448e+05 
-1.773328341912448e+05 
-1.772006333403614e+05 
-1.772006333403614e+05 
-1.770665224647751e+05 
-1.770665224647751e+05 
-1.769313076198431e+05 
-1.769313076198431e+05 
-1.767957052696410e+05 
-1.767957052696410e+05 
-1.766603476681800e+05 
-1.766603476681800e+05 
-1.765257893377608e+05 
-1.765257893377608e+05 
-1.763925140324839e+05 
-1.763925140324839e+05 
-1.762609417442766e+05 
-1.762609417442766e+05 
-1.761314354501015e+05 
-1.761314354501015e+05 
-1.760043074105891e+05 
-1.760043074105891e+05 
-1.758798249161828e+05 
-1.758798249161828e+05 
-1.757582154349154e+05 
-1.757582154349154e+05 
-1.756396711720885e+05 
-1.756396711720885e+05 
-1.755243530340050e+05 
-1.755243530340050e+05 
-1.754123941711248e+05 
-1.754123941711248e+05 
-1.753039026986145e+05 
-1.753039026986145e+05 
-1.751989652747809e+05 
-1.751989652747809e+05 
-1.750976458676092e+05 
-1.750976458676092e+05 
-1.750000000000000e+05 
    </DataArray>
    <DataArray type="Float64" Name="phiAnalytic_2" format="ascii">
-1.783119536456438e+05 
-1.783038921641935e+05 
-1.783038921641935e+05 
-1.782798766714383e+05 
-1.782798766714383e+05 
-1.782404029706845e+05 
-1.782404029706845e+05 
-1.781862620590556e+05 
-1.781862620590556e+05 
-1.781184920141715e+05 
-1.781184920141715e+05 
-1.780383193282444e+05 
-1.780383193282444e+05 
-1.779470961661607e+05 
-1.779470961661607e+05 
-1.778462394823387e+05 
-1.778462394823387e+05 
-1.777371765959884e+05 
-1.777371765959884e+05 
-1.776213001274699e+05 
-1.776213001274699e+05 
-1.774999335351095e+05 
-1.774999335351095e+05 
-1.773743071310700e+05 
-1.773743071310700e+05 
-1.772455435169014e+05 
-1.772455435169014e+05 
-1.771146508625146e+05 
-1.771146508625146e+05 
-1.769825222807493e+05 
-1.769825222807493e+05 
-1.768499396193696e+05 
-1.768499396193696e+05 
-1.767175802029562e+05 
-1.767175802029562e+05 
-1.765860253289589e+05 
-1.765860253289589e+05 
-1.764557696003777e+05 
-1.764557696003777e+05 
-1.763272304299697e+05 
-1.763272304299697e+05 
-1.762007572624850e+05 
-1.762007572624850e+05 
-1.760766402285653e+05 
-1.760766402285653e+05 
-1.759551180695116e+05 
-1.759551180695116e+05 
-1.758363852622023e+05 
-1.758363852622023e+05 
-1.757205983350180e+05 
-1.757205983350180e+05 
-1.756078814053812e+05 
-1.756078814053812e+05 
-1.754983309932197e+05 
-1.754983309932197e+05 
-1.753920201769967e+05 
-1.753920201769967e+05 
-1.752890021635371e+05 
-1.752890021635371e+05 
-1.751893133424199e+05 
-1.751893133424199e+05 
-1.750929758921464e+05 
-1.750929758921464e+05 
-1.750000000000000e+05 
    </DataArray>
  </PointData>
  <CellData>
    <DataArray type="Float64" Name="Owner" format="ascii">
0.000000000000000e+00 
0.000000000000000e+00 
0.000000000000000e+00 
0.000000000000000e+00 
0.000000000000000e+00 
0.000000000000000e+00 
0.000000000000000e+00 
0.000000000000000e+00 
0.000000000000000e+00 
0.000000000000000e+00 
0.000000000000000e+00 
0.000000000000000e+00 
0.000000000000000e+00 
0.000000000000000e+00 
0.000000000000000e+00 
0.000000000000000e+00 
0.000000000000000e+00 
0.000000000000000e+00 
0.000000000000000e+00 
0.000000000000000e+00 
0.000000000000000e+00 
0.000000000000000e+00 
0.000000000000000e+00 
0.000000000000000e+00 
0.000000000000000e+00 
0.000000000000000e+00 
0.000000000000000e+00 
0.000000000000000e+00 
0.000000000000000e+00 
0.000000000000000e+00 
0.000000000000000e+00 
0.000000000000000e+00 
0.000000000000000e+00 
0.000000000000000e+00 
0.000000000000000e+00 
0.000000000000000e+00 
0.000000000000000e+00 
0.000000000000000e+00 
0.000000000000000e+00 
0.000000000000000e+00 
0.000000000000000e+00 
0.000000000000000e+00 
0.000000000000000e+00 
0.000000000000000e+00 
0.000000000000000e+00 
0.000000000000000e+00 
0.000000000000000e+00 
0.000000000000000e+00 
0.000000000000000e+00 
0.000000000000000e+00 
0.000000000000000e+00 
0.000000000000000e+00 
0.000000000000000e+00 
0.000000000000000e+00 
0.000000000000000e+00 
0.000000000000000e+00 
0.000000000000000e+00 
0.000000000000000e+00 
0.000000000000000e+00 
0.000000000000000e+00 
0.000000000000000e+00 
0.000000000000000e+00 
0.000000000000000e+00 
0.000000000000000e+00 
    </DataArray>
  </CellData>
</Piece>
</UnstructuredGrid>
</VTKFile>
