<?xml version="1.0" ?> 
<!-- 
# vtk DataFile Version 3.0
-->
<VTKFile type="UnstructuredGrid" version="0.1" compressor="vtkZLibDataCompressor" byte_order="LittleEndian">
<UnstructuredGrid>
<FieldData>
<DataArray type="Float32" Name="TIME" NumberOfTuples="1" format="ascii">223.214285715</DataArray>
</FieldData>
<Piece NumberOfPoints="64" NumberOfCells="32" >
  <Points>
    <DataArray type="Float64" NumberOfComponents="3" format="ascii">
0.000000000000000e+00 0.000000000000000e+00 0.000000000000000e+00 
3.125000000000000e-05 0.000000000000000e+00 0.000000000000000e+00 
3.125000000000000e-05 0.000000000000000e+00 0.000000000000000e+00 
6.250000000000000e-05 0.000000000000000e+00 0.000000000000000e+00 
6.250000000000000e-05 0.000000000000000e+00 0.000000000000000e+00 
9.375000000000000e-05 0.000000000000000e+00 0.000000000000000e+00 
9.375000000000000e-05 0.000000000000000e+00 0.000000000000000e+00 
1.250000000000000e-04 0.000000000000000e+00 0.000000000000000e+00 
1.250000000000000e-04 0.000000000000000e+00 0.000000000000000e+00 
1.562500000000000e-04 0.000000000000000e+00 0.000000000000000e+00 
1.562500000000000e-04 0.000000000000000e+00 0.000000000000000e+00 
1.875000000000000e-04 0.000000000000000e+00 0.000000000000000e+00 
1.875000000000000e-04 0.000000000000000e+00 0.000000000000000e+00 
2.187500000000000e-04 0.000000000000000e+00 0.000000000000000e+00 
2.187500000000000e-04 0.000000000000000e+00 0.000000000000000e+00 
2.500000000000000e-04 0.000000000000000e+00 0.000000000000000e+00 
2.500000000000000e-04 0.000000000000000e+00 0.000000000000000e+00 
2.812500000000000e-04 0.000000000000000e+00 0.000000000000000e+00 
2.812500000000000e-04 0.000000000000000e+00 0.000000000000000e+00 
3.125000000000000e-04 0.000000000000000e+00 0.000000000000000e+00 
3.125000000000000e-04 0.000000000000000e+00 0.000000000000000e+00 
3.437500000000000e-04 0.000000000000000e+00 0.000000000000000e+00 
3.437500000000000e-04 0.000000000000000e+00 0.000000000000000e+00 
3.750000000000000e-04 0.000000000000000e+00 0.000000000000000e+00 
3.750000000000000e-04 0.000000000000000e+00 0.000000000000000e+00 
4.062500000000000e-04 0.000000000000000e+00 0.000000000000000e+00 
4.062500000000000e-04 0.000000000000000e+00 0.000000000000000e+00 
4.375000000000000e-04 0.000000000000000e+00 0.000000000000000e+00 
4.375000000000000e-04 0.000000000000000e+00 0.000000000000000e+00 
4.687500000000000e-04 0.000000000000000e+00 0.000000000000000e+00 
4.687500000000000e-04 0.000000000000000e+00 0.000000000000000e+00 
5.000000000000000e-04 0.000000000000000e+00 0.000000000000000e+00 
5.000000000000000e-04 0.000000000000000e+00 0.000000000000000e+00 
5.312500000000000e-04 0.000000000000000e+00 0.000000000000000e+00 
5.312500000000000e-04 0.000000000000000e+00 0.000000000000000e+00 
5.625000000000001e-04 0.000000000000000e+00 0.000000000000000e+00 
5.625000000000001e-04 0.000000000000000e+00 0.000000000000000e+00 
5.937500000000000e-04 0.000000000000000e+00 0.000000000000000e+00 
5.937500000000000e-04 0.000000000000000e+00 0.000000000000000e+00 
6.250000000000000e-04 0.000000000000000e+00 0.000000000000000e+00 
6.250000000000000e-04 0.000000000000000e+00 0.000000000000000e+00 
6.562500000000000e-04 0.000000000000000e+00 0.000000000000000e+00 
6.562500000000000e-04 0.000000000000000e+00 0.000000000000000e+00 
6.875000000000000e-04 0.000000000000000e+00 0.000000000000000e+00 
6.875000000000000e-04 0.000000000000000e+00 0.000000000000000e+00 
7.187500000000000e-04 0.000000000000000e+00 0.000000000000000e+00 
7.187500000000000e-04 0.000000000000000e+00 0.000000000000000e+00 
7.500000000000000e-04 0.000000000000000e+00 0.000000000000000e+00 
7.500000000000000e-04 0.000000000000000e+00 0.000000000000000e+00 
7.812500000000000e-04 0.000000000000000e+00 0.000000000000000e+00 
7.812500000000000e-04 0.000000000000000e+00 0.000000000000000e+00 
8.125000000000001e-04 0.000000000000000e+00 0.000000000000000e+00 
8.125000000000001e-04 0.000000000000000e+00 0.000000000000000e+00 
8.437500000000000e-04 0.000000000000000e+00 0.000000000000000e+00 
8.437500000000000e-04 0.000000000000000e+00 0.000000000000000e+00 
8.750000000000000e-04 0.000000000000000e+00 0.000000000000000e+00 
8.750000000000000e-04 0.000000000000000e+00 0.000000000000000e+00 
9.062500000000000e-04 0.000000000000000e+00 0.000000000000000e+00 
9.062500000000000e-04 0.000000000000000e+00 0.000000000000000e+00 
9.375000000000000e-04 0.000000000000000e+00 0.000000000000000e+00 
9.375000000000000e-04 0.000000000000000e+00 0.000000000000000e+00 
9.687500000000000e-04 0.000000000000000e+00 0.000000000000000e+00 
9.687500000000000e-04 0.000000000000000e+00 0.000000000000000e+00 
1.000000000000000e-03 0.000000000000000e+00 0.000000000000000e+00 
    </DataArray>
  </Points>

  <Cells>
    <DataArray type="Int32" Name="connectivity" format="ascii">
0 1 2 3 4 5 6 7 8 9 10 11 12 13 14 15 16 17 18 19 20 21 22 23 24 25 26 27 28 29 30 31 32 33 34 35 36 37 38 39 40 41 42 43 44 45 46 47 48 49 50 51 52 53 54 55 56 57 58 59 60 61 62 63     </DataArray>
    <DataArray type="Int32" Name="offsets" format="ascii">
2 4 6 8 10 12 14 16 18 20 22 24 26 28 30 32 34 36 38 40 42 44 46 48 50 52 54 56 58 60 62 64     </DataArray>
    <DataArray type="UInt8" Name="types" format="ascii">
3 3 3 3 3 3 3 3 3 3 3 3 3 3 3 3 3 3 3 3 3 3 3 3 3 3 3 3 3 3 3 3     </DataArray>
  </Cells>

  <PointData>
    <DataArray type="Float64" Name="phi_1" format="ascii">
2.298685079360933e+03 
2.307646588396150e+03 
2.307646588396150e+03 
2.334545007024713e+03 
2.334545007024713e+03 
2.379421383239835e+03 
2.379421383239835e+03 
2.442342055341053e+03 
2.442342055341053e+03 
2.523395584098751e+03 
2.523395584098751e+03 
2.622688538510718e+03 
2.622688538510718e+03 
2.740340199598576e+03 
2.740340199598576e+03 
2.876476249841417e+03 
2.876476249841417e+03 
3.031221517057571e+03 
3.031221517057571e+03 
3.204691844993000e+03 
3.204691844993000e+03 
3.396985171492662e+03 
3.396985171492662e+03 
3.608171910036655e+03 
3.608171910036655e+03 
3.838284751302637e+03 
3.838284751302637e+03 
4.087308027011153e+03 
4.087308027011153e+03 
4.355166807047142e+03 
4.355166807047142e+03 
4.641715931107145e+03 
4.641715931107145e+03 
4.946729206317173e+03 
4.946729206317173e+03 
5.269889030966773e+03 
5.269889030966773e+03 
5.610776729658390e+03 
5.610776729658390e+03 
5.968863906640602e+03 
5.968863906640602e+03 
6.343505133455105e+03 
6.343505133455105e+03 
6.733932306796887e+03 
6.733932306796887e+03 
7.139250945044967e+03 
7.139250945044967e+03 
7.558438901623045e+03 
7.558438901623045e+03 
7.990347047529674e+03 
7.990347047529674e+03 
8.433704834629398e+03 
8.433704834629398e+03 
8.887120465493732e+03 
8.887120465493732e+03 
9.349115618959137e+03 
9.349115618959137e+03 
9.818041655812194e+03 
9.818041655812194e+03 
1.029246315265823e+04 
1.029246315265823e+04 
1.076976576850110e+04 
1.076976576850110e+04 
1.125156268823250e+04 
    </DataArray>
    <DataArray type="Float64" Name="phiAnalytic_1" format="ascii">
2.326949302264753e+03 
2.336987618165382e+03 
2.336987618165382e+03 
2.367093760538931e+03 
2.367093760538931e+03 
2.417241003518469e+03 
2.417241003518469e+03 
2.487383778859221e+03 
2.487383778859221e+03 
2.577456165396237e+03 
2.577456165396237e+03 
2.687369828008621e+03 
2.687369828008621e+03 
2.817011458445101e+03 
2.817011458445101e+03 
2.966239783398674e+03 
2.966239783398674e+03 
3.134882216858427e+03 
3.134882216858427e+03 
3.322731243761253e+03 
3.322731243761253e+03 
3.529540630094363e+03 
3.529540630094363e+03 
3.755021560678109e+03 
3.755021560678109e+03 
3.998838809745153e+03 
3.998838809745153e+03 
4.260607051029558e+03 
4.260607051029558e+03 
4.539887413337387e+03 
4.539887413337387e+03 
4.836184384488274e+03 
4.836184384488274e+03 
5.148943161143485e+03 
5.148943161143485e+03 
5.477547534468891e+03 
5.477547534468891e+03 
5.821318391967155e+03 
5.821318391967155e+03 
6.179512904344848e+03 
6.179512904344848e+03 
6.551324453191647e+03 
6.551324453191647e+03 
6.935883340812910e+03 
6.935883340812910e+03 
7.332258308078470e+03 
7.332258308078470e+03 
7.739458869960552e+03 
7.739458869960552e+03 
8.156438461882067e+03 
8.156438461882067e+03 
8.582098373444076e+03 
8.582098373444076e+03 
9.015292429912270e+03 
9.015292429912270e+03 
9.454832366375244e+03 
9.454832366375244e+03 
9.899493825087466e+03 
9.899493825087466e+03 
1.034802289349989e+04 
1.034802289349989e+04 
1.079914308915456e+04 
1.079914308915456e+04 
1.125156268823250e+04 
    </DataArray>
    <DataArray type="Float64" Name="phi_2" format="ascii">
-1.789367865980982e+05 
-1.789271291162368e+05 
-1.789271291162368e+05 
-1.788983661393315e+05 
-1.788983661393315e+05 
-1.788511112993552e+05 
-1.788511112993552e+05 
-1.787863402598417e+05 
-1.787863402598417e+05 
-1.787053272556241e+05 
-1.787053272556241e+05 
-1.786095687432347e+05 
-1.786095687432347e+05 
-1.785007031917894e+05 
-1.785007031917894e+05 
-1.783804349852162e+05 
-1.783804349852162e+05 
-1.782504682665505e+05 
-1.782504682665505e+05 
-1.781124540305424e+05 
-1.781124540305424e+05 
-1.779679514488542e+05 
-1.779679514488542e+05 
-1.778184026451557e+05 
-1.778184026451557e+05 
-1.776651190369548e+05 
-1.776651190369548e+05 
-1.775092768640076e+05 
-1.775092768640076e+05 
-1.773519194782665e+05 
-1.773519194782665e+05 
-1.771939642085728e+05 
-1.771939642085728e+05 
-1.770362119902560e+05 
-1.770362119902560e+05 
-1.768793583619796e+05 
-1.768793583619796e+05 
-1.767240048165738e+05 
-1.767240048165738e+05 
-1.765706698182244e+05 
-1.765706698182244e+05 
-1.764197990558553e+05 
-1.764197990558553e+05 
-1.762717746953766e+05 
-1.762717746953766e+05 
-1.761269235304135e+05 
-1.761269235304135e+05 
-1.759855240259175e+05 
-1.759855240259175e+05 
-1.758478123039492e+05 
-1.758478123039492e+05 
-1.757139871756536e+05 
-1.757139871756536e+05 
-1.755842142776764e+05 
-1.755842142776764e+05 
-1.754586296108802e+05 
-1.754586296108802e+05 
-1.753373419669101e+05 
-1.753373419669101e+05 
-1.752204365894182e+05 
-1.752204365894182e+05 
-1.751079723416126e+05 
-1.751079723416126e+05 
-1.750000000000000e+05 
    </DataArray>
    <DataArray type="Float64" Name="phiAnalytic_2" format="ascii">
-1.789064923015613e+05 
-1.788958218280816e+05 
-1.788958218280816e+05 
-1.788640924876736e+05 
-1.788640924876736e+05 
-1.788121268530164e+05 
-1.788121268530164e+05 
-1.787412210796696e+05 
-1.787412210796696e+05 
-1.786530458571850e+05 
-1.786530458571850e+05 
-1.785495303069652e+05 
-1.785495303069652e+05 
-1.784327442146700e+05 
-1.784327442146700e+05 
-1.783047912215786e+05 
-1.783047912215786e+05 
-1.781677211553101e+05 
-1.781677211553101e+05 
-1.780234650247165e+05 
-1.780234650247165e+05 
-1.778737923884839e+05 
-1.778737923884839e+05 
-1.777202882989564e+05 
-1.777202882989564e+05 
-1.775643458033715e+05 
-1.775643458033715e+05 
-1.774071697616221e+05 
-1.774071697616221e+05 
-1.772497881425018e+05 
-1.772497881425018e+05 
-1.770930676640157e+05 
-1.770930676640157e+05 
-1.769377314173576e+05 
-1.769377314173576e+05 
-1.767843768236873e+05 
-1.767843768236873e+05 
-1.766334928567595e+05 
-1.766334928567595e+05 
-1.764854759092561e+05 
-1.764854759092561e+05 
-1.763406439985776e+05 
-1.763406439985776e+05 
-1.761992492217923e+05 
-1.761992492217923e+05 
-1.760614885041928e+05 
-1.760614885041928e+05 
-1.759275127636577e+05 
-1.759275127636577e+05 
-1.757974346517108e+05 
-1.757974346517108e+05 
-1.756713350454197e+05 
-1.756713350454197e+05 
-1.755492684618513e+05 
-1.755492684618513e+05 
-1.754312675554756e+05 
-1.754312675554756e+05 
-1.753173468431440e+05 
-1.753173468431440e+05 
-1.752075057839327e+05 
-1.752075057839327e+05 
-1.751017313239368e+05 
-1.751017313239368e+05 
-1.750000000000000e+05 
    </DataArray>
  </PointData>
  <CellData>
    <DataArray type="Float64" Name="Owner" format="ascii">
0.000000000000000e+00 
0.000000000000000e+00 
0.000000000000000e+00 
0.000000000000000e+00 
0.000000000000000e+00 
0.000000000000000e+00 
0.000000000000000e+00 
0.000000000000000e+00 
0.000000000000000e+00 
0.000000000000000e+00 
0.000000000000000e+00 
0.000000000000000e+00 
0.000000000000000e+00 
0.000000000000000e+00 
0.000000000000000e+00 
0.000000000000000e+00 
0.000000000000000e+00 
0.000000000000000e+00 
0.000000000000000e+00 
0.000000000000000e+00 
0.000000000000000e+00 
0.000000000000000e+00 
0.000000000000000e+00 
0.000000000000000e+00 
0.000000000000000e+00 
0.000000000000000e+00 
0.000000000000000e+00 
0.000000000000000e+00 
0.000000000000000e+00 
0.000000000000000e+00 
0.000000000000000e+00 
0.000000000000000e+00 
0.000000000000000e+00 
0.000000000000000e+00 
0.000000000000000e+00 
0.000000000000000e+00 
0.000000000000000e+00 
0.000000000000000e+00 
0.000000000000000e+00 
0.000000000000000e+00 
0.000000000000000e+00 
0.000000000000000e+00 
0.000000000000000e+00 
0.000000000000000e+00 
0.000000000000000e+00 
0.000000000000000e+00 
0.000000000000000e+00 
0.000000000000000e+00 
0.000000000000000e+00 
0.000000000000000e+00 
0.000000000000000e+00 
0.000000000000000e+00 
0.000000000000000e+00 
0.000000000000000e+00 
0.000000000000000e+00 
0.000000000000000e+00 
0.000000000000000e+00 
0.000000000000000e+00 
0.000000000000000e+00 
0.000000000000000e+00 
0.000000000000000e+00 
0.000000000000000e+00 
0.000000000000000e+00 
0.000000000000000e+00 
    </DataArray>
  </CellData>
</Piece>
</UnstructuredGrid>
</VTKFile>
