<?xml version="1.0" ?> 
<!-- 
# vtk DataFile Version 3.0
-->
<VTKFile type="UnstructuredGrid" version="0.1" compressor="vtkZLibDataCompressor" byte_order="LittleEndian">
<UnstructuredGrid>
<FieldData>
<DataArray type="Float32" Name="TIME" NumberOfTuples="1" format="ascii">334.8214285725</DataArray>
</FieldData>
<Piece NumberOfPoints="64" NumberOfCells="32" >
  <Points>
    <DataArray type="Float64" NumberOfComponents="3" format="ascii">
0.000000000000000e+00 0.000000000000000e+00 0.000000000000000e+00 
3.125000000000000e-05 0.000000000000000e+00 0.000000000000000e+00 
3.125000000000000e-05 0.000000000000000e+00 0.000000000000000e+00 
6.250000000000000e-05 0.000000000000000e+00 0.000000000000000e+00 
6.250000000000000e-05 0.000000000000000e+00 0.000000000000000e+00 
9.375000000000000e-05 0.000000000000000e+00 0.000000000000000e+00 
9.375000000000000e-05 0.000000000000000e+00 0.000000000000000e+00 
1.250000000000000e-04 0.000000000000000e+00 0.000000000000000e+00 
1.250000000000000e-04 0.000000000000000e+00 0.000000000000000e+00 
1.562500000000000e-04 0.000000000000000e+00 0.000000000000000e+00 
1.562500000000000e-04 0.000000000000000e+00 0.000000000000000e+00 
1.875000000000000e-04 0.000000000000000e+00 0.000000000000000e+00 
1.875000000000000e-04 0.000000000000000e+00 0.000000000000000e+00 
2.187500000000000e-04 0.000000000000000e+00 0.000000000000000e+00 
2.187500000000000e-04 0.000000000000000e+00 0.000000000000000e+00 
2.500000000000000e-04 0.000000000000000e+00 0.000000000000000e+00 
2.500000000000000e-04 0.000000000000000e+00 0.000000000000000e+00 
2.812500000000000e-04 0.000000000000000e+00 0.000000000000000e+00 
2.812500000000000e-04 0.000000000000000e+00 0.000000000000000e+00 
3.125000000000000e-04 0.000000000000000e+00 0.000000000000000e+00 
3.125000000000000e-04 0.000000000000000e+00 0.000000000000000e+00 
3.437500000000000e-04 0.000000000000000e+00 0.000000000000000e+00 
3.437500000000000e-04 0.000000000000000e+00 0.000000000000000e+00 
3.750000000000000e-04 0.000000000000000e+00 0.000000000000000e+00 
3.750000000000000e-04 0.000000000000000e+00 0.000000000000000e+00 
4.062500000000000e-04 0.000000000000000e+00 0.000000000000000e+00 
4.062500000000000e-04 0.000000000000000e+00 0.000000000000000e+00 
4.375000000000000e-04 0.000000000000000e+00 0.000000000000000e+00 
4.375000000000000e-04 0.000000000000000e+00 0.000000000000000e+00 
4.687500000000000e-04 0.000000000000000e+00 0.000000000000000e+00 
4.687500000000000e-04 0.000000000000000e+00 0.000000000000000e+00 
5.000000000000000e-04 0.000000000000000e+00 0.000000000000000e+00 
5.000000000000000e-04 0.000000000000000e+00 0.000000000000000e+00 
5.312500000000000e-04 0.000000000000000e+00 0.000000000000000e+00 
5.312500000000000e-04 0.000000000000000e+00 0.000000000000000e+00 
5.625000000000001e-04 0.000000000000000e+00 0.000000000000000e+00 
5.625000000000001e-04 0.000000000000000e+00 0.000000000000000e+00 
5.937500000000000e-04 0.000000000000000e+00 0.000000000000000e+00 
5.937500000000000e-04 0.000000000000000e+00 0.000000000000000e+00 
6.250000000000000e-04 0.000000000000000e+00 0.000000000000000e+00 
6.250000000000000e-04 0.000000000000000e+00 0.000000000000000e+00 
6.562500000000000e-04 0.000000000000000e+00 0.000000000000000e+00 
6.562500000000000e-04 0.000000000000000e+00 0.000000000000000e+00 
6.875000000000000e-04 0.000000000000000e+00 0.000000000000000e+00 
6.875000000000000e-04 0.000000000000000e+00 0.000000000000000e+00 
7.187500000000000e-04 0.000000000000000e+00 0.000000000000000e+00 
7.187500000000000e-04 0.000000000000000e+00 0.000000000000000e+00 
7.500000000000000e-04 0.000000000000000e+00 0.000000000000000e+00 
7.500000000000000e-04 0.000000000000000e+00 0.000000000000000e+00 
7.812500000000000e-04 0.000000000000000e+00 0.000000000000000e+00 
7.812500000000000e-04 0.000000000000000e+00 0.000000000000000e+00 
8.125000000000001e-04 0.000000000000000e+00 0.000000000000000e+00 
8.125000000000001e-04 0.000000000000000e+00 0.000000000000000e+00 
8.437500000000000e-04 0.000000000000000e+00 0.000000000000000e+00 
8.437500000000000e-04 0.000000000000000e+00 0.000000000000000e+00 
8.750000000000000e-04 0.000000000000000e+00 0.000000000000000e+00 
8.750000000000000e-04 0.000000000000000e+00 0.000000000000000e+00 
9.062500000000000e-04 0.000000000000000e+00 0.000000000000000e+00 
9.062500000000000e-04 0.000000000000000e+00 0.000000000000000e+00 
9.375000000000000e-04 0.000000000000000e+00 0.000000000000000e+00 
9.375000000000000e-04 0.000000000000000e+00 0.000000000000000e+00 
9.687500000000000e-04 0.000000000000000e+00 0.000000000000000e+00 
9.687500000000000e-04 0.000000000000000e+00 0.000000000000000e+00 
1.000000000000000e-03 0.000000000000000e+00 0.000000000000000e+00 
    </DataArray>
  </Points>

  <Cells>
    <DataArray type="Int32" Name="connectivity" format="ascii">
0 1 2 3 4 5 6 7 8 9 10 11 12 13 14 15 16 17 18 19 20 21 22 23 24 25 26 27 28 29 30 31 32 33 34 35 36 37 38 39 40 41 42 43 44 45 46 47 48 49 50 51 52 53 54 55 56 57 58 59 60 61 62 63     </DataArray>
    <DataArray type="Int32" Name="offsets" format="ascii">
2 4 6 8 10 12 14 16 18 20 22 24 26 28 30 32 34 36 38 40 42 44 46 48 50 52 54 56 58 60 62 64     </DataArray>
    <DataArray type="UInt8" Name="types" format="ascii">
3 3 3 3 3 3 3 3 3 3 3 3 3 3 3 3 3 3 3 3 3 3 3 3 3 3 3 3 3 3 3 3     </DataArray>
  </Cells>

  <PointData>
    <DataArray type="Float64" Name="phi_1" format="ascii">
3.970899261381676e+03 
3.979269845906729e+03 
3.979269845906729e+03 
4.004369930647394e+03 
4.004369930647394e+03 
4.046164355954915e+03 
4.046164355954915e+03 
4.104594016829566e+03 
4.104594016829566e+03 
4.179575121385141e+03 
4.179575121385141e+03 
4.270998185289684e+03 
4.270998185289684e+03 
4.378726792475733e+03 
4.378726792475733e+03 
4.502596158321974e+03 
4.502596158321974e+03 
4.642411536112123e+03 
4.642411536112123e+03 
4.797946511102324e+03 
4.797946511102324e+03 
4.968941229260368e+03 
4.968941229260368e+03 
5.155100609888071e+03 
5.155100609888071e+03 
5.356092593021392e+03 
5.356092593021392e+03 
5.571546473725190e+03 
5.571546473725190e+03 
5.801051376059299e+03 
5.801051376059299e+03 
6.044154919439712e+03 
6.044154919439712e+03 
6.300362129172750e+03 
6.300362129172750e+03 
6.569134640997630e+03 
6.569134640997630e+03 
6.849890246143105e+03 
6.849890246143105e+03 
7.142002819699688e+03 
7.142002819699688e+03 
7.444802666829813e+03 
7.444802666829813e+03 
7.757577324429717e+03 
7.757577324429717e+03 
8.079572809873520e+03 
8.079572809873520e+03 
8.409995444137674e+03 
8.409995444137674e+03 
8.748013815627888e+03 
8.748013815627888e+03 
9.092762540073676e+03 
9.092762540073676e+03 
9.443341467177577e+03 
9.443341467177577e+03 
9.798834402458573e+03 
9.798834402458573e+03 
1.015825562624004e+04 
1.015825562624004e+04 
1.052077280637164e+04 
1.052077280637164e+04 
1.088488100286435e+04 
1.088488100286435e+04 
1.125156268823250e+04 
    </DataArray>
    <DataArray type="Float64" Name="phiAnalytic_1" format="ascii">
4.120482049948017e+03 
4.128982898353058e+03 
4.128982898353058e+03 
4.154466887533455e+03 
4.154466887533455e+03 
4.196878352461016e+03 
4.196878352461016e+03 
4.256124529235418e+03 
4.256124529235418e+03 
4.332075574909332e+03 
4.332075574909332e+03 
4.424564601376453e+03 
4.424564601376453e+03 
4.533387729276442e+03 
4.533387729276442e+03 
4.658304169320724e+03 
4.658304169320724e+03 
4.799036339712365e+03 
4.799036339712365e+03 
4.955270029389668e+03 
4.955270029389668e+03 
5.126654617639671e+03 
5.126654617639671e+03 
5.312803361182058e+03 
5.312803361182058e+03 
5.513293760100162e+03 
5.513293760100162e+03 
5.727668013983138e+03 
5.727668013983138e+03 
5.955433579338688e+03 
5.955433579338688e+03 
6.196063838741000e+03 
6.196063838741000e+03 
6.448998891303170e+03 
6.448998891303170e+03 
6.713646472922380e+03 
6.713646472922380e+03 
6.989383013360533e+03 
6.989383013360533e+03 
7.275554835619553e+03 
7.275554835619553e+03 
7.571479501280365e+03 
7.571479501280365e+03 
7.876447303533646e+03 
7.876447303533646e+03 
8.189722907577305e+03 
8.189722907577305e+03 
8.510547135932627e+03 
8.510547135932627e+03 
8.838138894080994e+03 
8.838138894080994e+03 
9.171697229690459e+03 
9.171697229690459e+03 
9.510403516630331e+03 
9.510403516630331e+03 
9.853423753004903e+03 
9.853423753004903e+03 
1.019991096061564e+04 
1.019991096061564e+04 
1.054900767162238e+04 
1.054900767162238e+04 
1.089984848675253e+04 
1.089984848675253e+04 
1.125156268823250e+04 
    </DataArray>
    <DataArray type="Float64" Name="phi_2" format="ascii">
-1.775817261947128e+05 
-1.775765027260543e+05 
-1.775765027260543e+05 
-1.775609053747687e+05 
-1.775609053747687e+05 
-1.775351502052444e+05 
-1.775351502052444e+05 
-1.774995872691814e+05 
-1.774995872691814e+05 
-1.774546864487265e+05 
-1.774546864487265e+05 
-1.774010193491592e+05 
-1.774010193491592e+05 
-1.773392386564390e+05 
-1.773392386564390e+05 
-1.772700564265422e+05 
-1.772700564265422e+05 
-1.771942226628816e+05 
-1.771942226628816e+05 
-1.771125053064492e+05 
-1.771125053064492e+05 
-1.770256724631286e+05 
-1.770256724631286e+05 
-1.769344773752580e+05 
-1.769344773752580e+05 
-1.768396463513504e+05 
-1.768396463513504e+05 
-1.767418696258307e+05 
-1.767418696258307e+05 
-1.766417949421185e+05 
-1.766417949421185e+05 
-1.765400235378018e+05 
-1.765400235378018e+05 
-1.764371081524124e+05 
-1.764371081524124e+05 
-1.763335526646487e+05 
-1.763335526646487e+05 
-1.762298129839798e+05 
-1.762298129839798e+05 
-1.761262988596018e+05 
-1.761262988596018e+05 
-1.760233763180046e+05 
-1.760233763180046e+05 
-1.759213704917937e+05 
-1.759213704917937e+05 
-1.758205686517786e+05 
-1.758205686517786e+05 
-1.757212232996439e+05 
-1.757212232996439e+05 
-1.756235552150781e+05 
-1.756235552150781e+05 
-1.755277563903554e+05 
-1.755277563903554e+05 
-1.754339927851328e+05 
-1.754339927851328e+05 
-1.753424069467108e+05 
-1.753424069467108e+05 
-1.752531202241399e+05 
-1.752531202241399e+05 
-1.751662355020262e+05 
-1.751662355020262e+05 
-1.750818371497754e+05 
-1.750818371497754e+05 
-1.750000000000000e+05 
    </DataArray>
    <DataArray type="Float64" Name="phiAnalytic_2" format="ascii">
-1.774900651693336e+05 
-1.774849564567120e+05 
-1.774849564567120e+05 
-1.774697042610552e+05 
-1.774697042610552e+05 
-1.774445271787793e+05 
-1.774445271787793e+05 
-1.774097790634559e+05 
-1.774097790634559e+05 
-1.773659342976588e+05 
-1.773659342976588e+05 
-1.773135689870399e+05 
-1.773135689870399e+05 
-1.772533395709545e+05 
-1.772533395709545e+05 
-1.771859603928828e+05 
-1.771859603928828e+05 
-1.771121816504647e+05 
-1.771121816504647e+05 
-1.770327688943396e+05 
-1.770327688943396e+05 
-1.769484849239049e+05 
-1.769484849239049e+05 
-1.768600745915659e+05 
-1.768600745915659e+05 
-1.767682527187340e+05 
-1.767682527187340e+05 
-1.766736950746708e+05 
-1.766736950746708e+05 
-1.765770321854934e+05 
-1.765770321854934e+05 
-1.764788456248474e+05 
-1.764788456248474e+05 
-1.763796663811334e+05 
-1.763796663811334e+05 
-1.762799748858318e+05 
-1.762799748858318e+05 
-1.761802023096153e+05 
-1.761802023096153e+05 
-1.760807327750709e+05 
-1.760807327750709e+05 
-1.759819061868679e+05 
-1.759819061868679e+05 
-1.758840214346620e+05 
-1.758840214346620e+05 
-1.757873397759921e+05 
-1.757873397759921e+05 
-1.756920882529998e+05 
-1.756920882529998e+05 
-1.755984630366435e+05 
-1.755984630366435e+05 
-1.755066326248739e+05 
-1.755066326248739e+05 
-1.754167408473716e+05 
-1.754167408473716e+05 
-1.753289096496242e+05 
-1.753289096496242e+05 
-1.752432416442402e+05 
-1.752432416442402e+05 
-1.751598224283493e+05 
-1.751598224283493e+05 
-1.750787226735619e+05 
-1.750787226735619e+05 
-1.750000000000000e+05 
    </DataArray>
  </PointData>
  <CellData>
    <DataArray type="Float64" Name="Owner" format="ascii">
0.000000000000000e+00 
0.000000000000000e+00 
0.000000000000000e+00 
0.000000000000000e+00 
0.000000000000000e+00 
0.000000000000000e+00 
0.000000000000000e+00 
0.000000000000000e+00 
0.000000000000000e+00 
0.000000000000000e+00 
0.000000000000000e+00 
0.000000000000000e+00 
0.000000000000000e+00 
0.000000000000000e+00 
0.000000000000000e+00 
0.000000000000000e+00 
0.000000000000000e+00 
0.000000000000000e+00 
0.000000000000000e+00 
0.000000000000000e+00 
0.000000000000000e+00 
0.000000000000000e+00 
0.000000000000000e+00 
0.000000000000000e+00 
0.000000000000000e+00 
0.000000000000000e+00 
0.000000000000000e+00 
0.000000000000000e+00 
0.000000000000000e+00 
0.000000000000000e+00 
0.000000000000000e+00 
0.000000000000000e+00 
0.000000000000000e+00 
0.000000000000000e+00 
0.000000000000000e+00 
0.000000000000000e+00 
0.000000000000000e+00 
0.000000000000000e+00 
0.000000000000000e+00 
0.000000000000000e+00 
0.000000000000000e+00 
0.000000000000000e+00 
0.000000000000000e+00 
0.000000000000000e+00 
0.000000000000000e+00 
0.000000000000000e+00 
0.000000000000000e+00 
0.000000000000000e+00 
0.000000000000000e+00 
0.000000000000000e+00 
0.000000000000000e+00 
0.000000000000000e+00 
0.000000000000000e+00 
0.000000000000000e+00 
0.000000000000000e+00 
0.000000000000000e+00 
0.000000000000000e+00 
0.000000000000000e+00 
0.000000000000000e+00 
0.000000000000000e+00 
0.000000000000000e+00 
0.000000000000000e+00 
0.000000000000000e+00 
0.000000000000000e+00 
    </DataArray>
  </CellData>
</Piece>
</UnstructuredGrid>
</VTKFile>
