<?xml version="1.0" ?> 
<!-- 
# vtk DataFile Version 3.0
-->
<VTKFile type="UnstructuredGrid" version="0.1" compressor="vtkZLibDataCompressor" byte_order="LittleEndian">
<UnstructuredGrid>
<FieldData>
<DataArray type="Float32" Name="TIME" NumberOfTuples="1" format="ascii">148.80952381</DataArray>
</FieldData>
<Piece NumberOfPoints="64" NumberOfCells="32" >
  <Points>
    <DataArray type="Float64" NumberOfComponents="3" format="ascii">
0.000000000000000e+00 0.000000000000000e+00 0.000000000000000e+00 
3.125000000000000e-05 0.000000000000000e+00 0.000000000000000e+00 
3.125000000000000e-05 0.000000000000000e+00 0.000000000000000e+00 
6.250000000000000e-05 0.000000000000000e+00 0.000000000000000e+00 
6.250000000000000e-05 0.000000000000000e+00 0.000000000000000e+00 
9.375000000000000e-05 0.000000000000000e+00 0.000000000000000e+00 
9.375000000000000e-05 0.000000000000000e+00 0.000000000000000e+00 
1.250000000000000e-04 0.000000000000000e+00 0.000000000000000e+00 
1.250000000000000e-04 0.000000000000000e+00 0.000000000000000e+00 
1.562500000000000e-04 0.000000000000000e+00 0.000000000000000e+00 
1.562500000000000e-04 0.000000000000000e+00 0.000000000000000e+00 
1.875000000000000e-04 0.000000000000000e+00 0.000000000000000e+00 
1.875000000000000e-04 0.000000000000000e+00 0.000000000000000e+00 
2.187500000000000e-04 0.000000000000000e+00 0.000000000000000e+00 
2.187500000000000e-04 0.000000000000000e+00 0.000000000000000e+00 
2.500000000000000e-04 0.000000000000000e+00 0.000000000000000e+00 
2.500000000000000e-04 0.000000000000000e+00 0.000000000000000e+00 
2.812500000000000e-04 0.000000000000000e+00 0.000000000000000e+00 
2.812500000000000e-04 0.000000000000000e+00 0.000000000000000e+00 
3.125000000000000e-04 0.000000000000000e+00 0.000000000000000e+00 
3.125000000000000e-04 0.000000000000000e+00 0.000000000000000e+00 
3.437500000000000e-04 0.000000000000000e+00 0.000000000000000e+00 
3.437500000000000e-04 0.000000000000000e+00 0.000000000000000e+00 
3.750000000000000e-04 0.000000000000000e+00 0.000000000000000e+00 
3.750000000000000e-04 0.000000000000000e+00 0.000000000000000e+00 
4.062500000000000e-04 0.000000000000000e+00 0.000000000000000e+00 
4.062500000000000e-04 0.000000000000000e+00 0.000000000000000e+00 
4.375000000000000e-04 0.000000000000000e+00 0.000000000000000e+00 
4.375000000000000e-04 0.000000000000000e+00 0.000000000000000e+00 
4.687500000000000e-04 0.000000000000000e+00 0.000000000000000e+00 
4.687500000000000e-04 0.000000000000000e+00 0.000000000000000e+00 
5.000000000000000e-04 0.000000000000000e+00 0.000000000000000e+00 
5.000000000000000e-04 0.000000000000000e+00 0.000000000000000e+00 
5.312500000000000e-04 0.000000000000000e+00 0.000000000000000e+00 
5.312500000000000e-04 0.000000000000000e+00 0.000000000000000e+00 
5.625000000000001e-04 0.000000000000000e+00 0.000000000000000e+00 
5.625000000000001e-04 0.000000000000000e+00 0.000000000000000e+00 
5.937500000000000e-04 0.000000000000000e+00 0.000000000000000e+00 
5.937500000000000e-04 0.000000000000000e+00 0.000000000000000e+00 
6.250000000000000e-04 0.000000000000000e+00 0.000000000000000e+00 
6.250000000000000e-04 0.000000000000000e+00 0.000000000000000e+00 
6.562500000000000e-04 0.000000000000000e+00 0.000000000000000e+00 
6.562500000000000e-04 0.000000000000000e+00 0.000000000000000e+00 
6.875000000000000e-04 0.000000000000000e+00 0.000000000000000e+00 
6.875000000000000e-04 0.000000000000000e+00 0.000000000000000e+00 
7.187500000000000e-04 0.000000000000000e+00 0.000000000000000e+00 
7.187500000000000e-04 0.000000000000000e+00 0.000000000000000e+00 
7.500000000000000e-04 0.000000000000000e+00 0.000000000000000e+00 
7.500000000000000e-04 0.000000000000000e+00 0.000000000000000e+00 
7.812500000000000e-04 0.000000000000000e+00 0.000000000000000e+00 
7.812500000000000e-04 0.000000000000000e+00 0.000000000000000e+00 
8.125000000000001e-04 0.000000000000000e+00 0.000000000000000e+00 
8.125000000000001e-04 0.000000000000000e+00 0.000000000000000e+00 
8.437500000000000e-04 0.000000000000000e+00 0.000000000000000e+00 
8.437500000000000e-04 0.000000000000000e+00 0.000000000000000e+00 
8.750000000000000e-04 0.000000000000000e+00 0.000000000000000e+00 
8.750000000000000e-04 0.000000000000000e+00 0.000000000000000e+00 
9.062500000000000e-04 0.000000000000000e+00 0.000000000000000e+00 
9.062500000000000e-04 0.000000000000000e+00 0.000000000000000e+00 
9.375000000000000e-04 0.000000000000000e+00 0.000000000000000e+00 
9.375000000000000e-04 0.000000000000000e+00 0.000000000000000e+00 
9.687500000000000e-04 0.000000000000000e+00 0.000000000000000e+00 
9.687500000000000e-04 0.000000000000000e+00 0.000000000000000e+00 
1.000000000000000e-03 0.000000000000000e+00 0.000000000000000e+00 
    </DataArray>
  </Points>

  <Cells>
    <DataArray type="Int32" Name="connectivity" format="ascii">
0 1 2 3 4 5 6 7 8 9 10 11 12 13 14 15 16 17 18 19 20 21 22 23 24 25 26 27 28 29 30 31 32 33 34 35 36 37 38 39 40 41 42 43 44 45 46 47 48 49 50 51 52 53 54 55 56 57 58 59 60 61 62 63     </DataArray>
    <DataArray type="Int32" Name="offsets" format="ascii">
2 4 6 8 10 12 14 16 18 20 22 24 26 28 30 32 34 36 38 40 42 44 46 48 50 52 54 56 58 60 62 64     </DataArray>
    <DataArray type="UInt8" Name="types" format="ascii">
3 3 3 3 3 3 3 3 3 3 3 3 3 3 3 3 3 3 3 3 3 3 3 3 3 3 3 3 3 3 3 3     </DataArray>
  </Cells>

  <PointData>
    <DataArray type="Float64" Name="phi_1" format="ascii">
1.178147486591235e+03 
1.185652879891113e+03 
1.185652879891113e+03 
1.208223807971270e+03 
1.208223807971270e+03 
1.246023839422318e+03 
1.246023839422318e+03 
1.299323350551790e+03 
1.299323350551790e+03 
1.368496206645862e+03 
1.368496206645862e+03 
1.454015148324036e+03 
1.454015148324036e+03 
1.556445839630773e+03 
1.556445839630773e+03 
1.676439462251714e+03 
1.676439462251714e+03 
1.814723671684428e+03 
1.814723671684428e+03 
1.972091681127835e+03 
1.972091681127835e+03 
2.149389212306895e+03 
2.149389212306895e+03 
2.347499047867562e+03 
2.347499047867562e+03 
2.567322934111767e+03 
2.567322934111767e+03 
2.809760614017075e+03 
2.809760614017075e+03 
3.075685819715334e+03 
3.075685819715334e+03 
3.365919124246644e+03 
3.365919124246644e+03 
3.681197649330836e+03 
3.681197649330836e+03 
4.022141754907010e+03 
4.022141754907010e+03 
4.389219002427673e+03 
4.389219002427673e+03 
4.782705894955151e+03 
4.782705894955151e+03 
5.202648147754482e+03 
5.202648147754482e+03 
5.648820571205532e+03 
5.648820571205532e+03 
6.120687910830638e+03 
6.120687910830638e+03 
6.617368728069181e+03 
6.617368728069181e+03 
7.137603469389079e+03 
7.137603469389079e+03 
7.679733531024985e+03 
7.679733531024985e+03 
8.241678108391787e+03 
8.241678108391787e+03 
8.820974844453116e+03 
8.820974844453116e+03 
9.414644492447866e+03 
9.414644492447866e+03 
1.001982170864645e+04 
1.001982170864645e+04 
1.063152872590535e+04 
1.063152872590535e+04 
1.125156268823250e+04 
    </DataArray>
    <DataArray type="Float64" Name="phiAnalytic_1" format="ascii">
1.047982948847311e+03 
1.057455590165505e+03 
1.057455590165505e+03 
1.085910287752999e+03 
1.085910287752999e+03 
1.133456068075569e+03 
1.133456068075569e+03 
1.200270351328393e+03 
1.200270351328393e+03 
1.286592600032623e+03 
1.286592600032623e+03 
1.392715595216953e+03 
1.392715595216953e+03 
1.518974506437984e+03 
1.518974506437984e+03 
1.665733966569835e+03 
1.665733966569835e+03 
1.833373404653831e+03 
1.833373404653831e+03 
2.022270929434228e+03 
2.022270929434228e+03 
2.232786091724592e+03 
2.232786091724592e+03 
2.465241884590865e+03 
2.465241884590865e+03 
2.719906365594263e+03 
2.719906365594263e+03 
2.996974304090141e+03 
2.996974304090141e+03 
3.296549267936017e+03 
3.296549267936017e+03 
3.618626567107274e+03 
3.618626567107274e+03 
3.963077465963749e+03 
3.963077465963749e+03 
4.329635060743798e+03 
4.329635060743798e+03 
4.717882194000978e+03 
4.717882194000978e+03 
5.127241743128277e+03 
5.127241743128277e+03 
5.556969576124772e+03 
5.556969576124772e+03 
6.006150414963135e+03 
6.006150414963135e+03 
6.473696786258387e+03 
6.473696786258387e+03 
6.958351171687128e+03 
6.958351171687128e+03 
7.458691398329355e+03 
7.458691398329355e+03 
7.973139233627629e+03 
7.973139233627629e+03 
8.499972073010102e+03 
8.499972073010102e+03 
9.037337532569780e+03 
9.037337532569780e+03 
9.583270686756137e+03 
9.583270686756137e+03 
1.013571362401514e+04 
1.013571362401514e+04 
1.069253693379722e+04 
1.069253693379722e+04 
1.125156268823250e+04 
    </DataArray>
    <DataArray type="Float64" Name="phi_2" format="ascii">
-1.805936160793160e+05 
-1.805778415378136e+05 
-1.805778415378136e+05 
-1.805310006271715e+05 
-1.805310006271715e+05 
-1.804544902700371e+05 
-1.804544902700371e+05 
-1.803504792495034e+05 
-1.803504792495034e+05 
-1.802217045497365e+05 
-1.802217045497365e+05 
-1.800712445591869e+05 
-1.800712445591869e+05 
-1.799023044326755e+05 
-1.799023044326755e+05 
-1.797180382672150e+05 
-1.797180382672150e+05 
-1.795214196369918e+05 
-1.795214196369918e+05 
-1.793151608084321e+05 
-1.793151608084321e+05 
-1.791016737219516e+05 
-1.791016737219516e+05 
-1.788830626466016e+05 
-1.788830626466016e+05 
-1.786611382275466e+05 
-1.786611382275466e+05 
-1.784374441435134e+05 
-1.784374441435134e+05 
-1.782132897109769e+05 
-1.782132897109769e+05 
-1.779897838511635e+05 
-1.779897838511635e+05 
-1.777678675589378e+05 
-1.777678675589378e+05 
-1.775483432929227e+05 
-1.775483432929227e+05 
-1.773319005790155e+05 
-1.773319005790155e+05 
-1.771191376675573e+05 
-1.771191376675573e+05 
-1.769105793963979e+05 
-1.769105793963979e+05 
-1.767066915646353e+05 
-1.767066915646353e+05 
-1.765078921715596e+05 
-1.765078921715596e+05 
-1.763145598700131e+05 
-1.763145598700131e+05 
-1.761270399303264e+05 
-1.761270399303264e+05 
-1.759456480035750e+05 
-1.759456480035750e+05 
-1.757706717668101e+05 
-1.757706717668101e+05 
-1.756023710383800e+05 
-1.756023710383800e+05 
-1.754409750563827e+05 
-1.754409750563827e+05 
-1.752866821746390e+05 
-1.752866821746390e+05 
-1.751396447101284e+05 
-1.751396447101284e+05 
-1.750000000000000e+05 
    </DataArray>
    <DataArray type="Float64" Name="phiAnalytic_2" format="ascii">
-1.808838234472917e+05 
-1.808615182389191e+05 
-1.808615182389191e+05 
-1.807956982193199e+05 
-1.807956982193199e+05 
-1.806894738248790e+05 
-1.806894738248790e+05 
-1.805474984898697e+05 
-1.805474984898697e+05 
-1.803753432535114e+05 
-1.803753432535114e+05 
-1.801788765669796e+05 
-1.801788765669796e+05 
-1.799637648103047e+05 
-1.799637648103047e+05 
-1.797351423165483e+05 
-1.797351423165483e+05 
-1.794974438580747e+05 
-1.794974438580747e+05 
-1.792543623249712e+05 
-1.792543623249712e+05 
-1.790088871705697e+05 
-1.790088871705697e+05 
-1.787633855313496e+05 
-1.787633855313496e+05 
-1.785196989607109e+05 
-1.785196989607109e+05 
-1.782792392321964e+05 
-1.782792392321964e+05 
-1.780430746243100e+05 
-1.780430746243100e+05 
-1.778120033031926e+05 
-1.778120033031926e+05 
-1.775866134321833e+05 
-1.775866134321833e+05 
-1.773673311564415e+05 
-1.773673311564415e+05 
-1.771544582175964e+05 
-1.771544582175964e+05 
-1.769482010556415e+05 
-1.769482010556415e+05 
-1.767486931101825e+05 
-1.767486931101825e+05 
-1.765560117898224e+05 
-1.765560117898224e+05 
-1.763701913165162e+05 
-1.763701913165162e+05 
-1.761912324092358e+05 
-1.761912324092358e+05 
-1.760191095631693e+05 
-1.760191095631693e+05 
-1.758537765098406e+05 
-1.758537765098406e+05 
-1.756951703072289e+05 
-1.756951703072289e+05 
-1.755432144022705e+05 
-1.755432144022705e+05 
-1.753978209257227e+05 
-1.753978209257227e+05 
-1.752588924163239e+05 
-1.752588924163239e+05 
-1.751263231232917e+05 
-1.751263231232917e+05 
-1.750000000000000e+05 
    </DataArray>
  </PointData>
  <CellData>
    <DataArray type="Float64" Name="Owner" format="ascii">
0.000000000000000e+00 
0.000000000000000e+00 
0.000000000000000e+00 
0.000000000000000e+00 
0.000000000000000e+00 
0.000000000000000e+00 
0.000000000000000e+00 
0.000000000000000e+00 
0.000000000000000e+00 
0.000000000000000e+00 
0.000000000000000e+00 
0.000000000000000e+00 
0.000000000000000e+00 
0.000000000000000e+00 
0.000000000000000e+00 
0.000000000000000e+00 
0.000000000000000e+00 
0.000000000000000e+00 
0.000000000000000e+00 
0.000000000000000e+00 
0.000000000000000e+00 
0.000000000000000e+00 
0.000000000000000e+00 
0.000000000000000e+00 
0.000000000000000e+00 
0.000000000000000e+00 
0.000000000000000e+00 
0.000000000000000e+00 
0.000000000000000e+00 
0.000000000000000e+00 
0.000000000000000e+00 
0.000000000000000e+00 
0.000000000000000e+00 
0.000000000000000e+00 
0.000000000000000e+00 
0.000000000000000e+00 
0.000000000000000e+00 
0.000000000000000e+00 
0.000000000000000e+00 
0.000000000000000e+00 
0.000000000000000e+00 
0.000000000000000e+00 
0.000000000000000e+00 
0.000000000000000e+00 
0.000000000000000e+00 
0.000000000000000e+00 
0.000000000000000e+00 
0.000000000000000e+00 
0.000000000000000e+00 
0.000000000000000e+00 
0.000000000000000e+00 
0.000000000000000e+00 
0.000000000000000e+00 
0.000000000000000e+00 
0.000000000000000e+00 
0.000000000000000e+00 
0.000000000000000e+00 
0.000000000000000e+00 
0.000000000000000e+00 
0.000000000000000e+00 
0.000000000000000e+00 
0.000000000000000e+00 
0.000000000000000e+00 
0.000000000000000e+00 
    </DataArray>
  </CellData>
</Piece>
</UnstructuredGrid>
</VTKFile>
