<?xml version="1.0" ?> 
<!-- 
# vtk DataFile Version 3.0
-->
<VTKFile type="UnstructuredGrid" version="0.1" compressor="vtkZLibDataCompressor" byte_order="LittleEndian">
<UnstructuredGrid>
<FieldData>
<DataArray type="Float32" Name="TIME" NumberOfTuples="1" format="ascii">520.833333335</DataArray>
</FieldData>
<Piece NumberOfPoints="64" NumberOfCells="32" >
  <Points>
    <DataArray type="Float64" NumberOfComponents="3" format="ascii">
0.000000000000000e+00 0.000000000000000e+00 0.000000000000000e+00 
3.125000000000000e-05 0.000000000000000e+00 0.000000000000000e+00 
3.125000000000000e-05 0.000000000000000e+00 0.000000000000000e+00 
6.250000000000000e-05 0.000000000000000e+00 0.000000000000000e+00 
6.250000000000000e-05 0.000000000000000e+00 0.000000000000000e+00 
9.375000000000000e-05 0.000000000000000e+00 0.000000000000000e+00 
9.375000000000000e-05 0.000000000000000e+00 0.000000000000000e+00 
1.250000000000000e-04 0.000000000000000e+00 0.000000000000000e+00 
1.250000000000000e-04 0.000000000000000e+00 0.000000000000000e+00 
1.562500000000000e-04 0.000000000000000e+00 0.000000000000000e+00 
1.562500000000000e-04 0.000000000000000e+00 0.000000000000000e+00 
1.875000000000000e-04 0.000000000000000e+00 0.000000000000000e+00 
1.875000000000000e-04 0.000000000000000e+00 0.000000000000000e+00 
2.187500000000000e-04 0.000000000000000e+00 0.000000000000000e+00 
2.187500000000000e-04 0.000000000000000e+00 0.000000000000000e+00 
2.500000000000000e-04 0.000000000000000e+00 0.000000000000000e+00 
2.500000000000000e-04 0.000000000000000e+00 0.000000000000000e+00 
2.812500000000000e-04 0.000000000000000e+00 0.000000000000000e+00 
2.812500000000000e-04 0.000000000000000e+00 0.000000000000000e+00 
3.125000000000000e-04 0.000000000000000e+00 0.000000000000000e+00 
3.125000000000000e-04 0.000000000000000e+00 0.000000000000000e+00 
3.437500000000000e-04 0.000000000000000e+00 0.000000000000000e+00 
3.437500000000000e-04 0.000000000000000e+00 0.000000000000000e+00 
3.750000000000000e-04 0.000000000000000e+00 0.000000000000000e+00 
3.750000000000000e-04 0.000000000000000e+00 0.000000000000000e+00 
4.062500000000000e-04 0.000000000000000e+00 0.000000000000000e+00 
4.062500000000000e-04 0.000000000000000e+00 0.000000000000000e+00 
4.375000000000000e-04 0.000000000000000e+00 0.000000000000000e+00 
4.375000000000000e-04 0.000000000000000e+00 0.000000000000000e+00 
4.687500000000000e-04 0.000000000000000e+00 0.000000000000000e+00 
4.687500000000000e-04 0.000000000000000e+00 0.000000000000000e+00 
5.000000000000000e-04 0.000000000000000e+00 0.000000000000000e+00 
5.000000000000000e-04 0.000000000000000e+00 0.000000000000000e+00 
5.312500000000000e-04 0.000000000000000e+00 0.000000000000000e+00 
5.312500000000000e-04 0.000000000000000e+00 0.000000000000000e+00 
5.625000000000001e-04 0.000000000000000e+00 0.000000000000000e+00 
5.625000000000001e-04 0.000000000000000e+00 0.000000000000000e+00 
5.937500000000000e-04 0.000000000000000e+00 0.000000000000000e+00 
5.937500000000000e-04 0.000000000000000e+00 0.000000000000000e+00 
6.250000000000000e-04 0.000000000000000e+00 0.000000000000000e+00 
6.250000000000000e-04 0.000000000000000e+00 0.000000000000000e+00 
6.562500000000000e-04 0.000000000000000e+00 0.000000000000000e+00 
6.562500000000000e-04 0.000000000000000e+00 0.000000000000000e+00 
6.875000000000000e-04 0.000000000000000e+00 0.000000000000000e+00 
6.875000000000000e-04 0.000000000000000e+00 0.000000000000000e+00 
7.187500000000000e-04 0.000000000000000e+00 0.000000000000000e+00 
7.187500000000000e-04 0.000000000000000e+00 0.000000000000000e+00 
7.500000000000000e-04 0.000000000000000e+00 0.000000000000000e+00 
7.500000000000000e-04 0.000000000000000e+00 0.000000000000000e+00 
7.812500000000000e-04 0.000000000000000e+00 0.000000000000000e+00 
7.812500000000000e-04 0.000000000000000e+00 0.000000000000000e+00 
8.125000000000001e-04 0.000000000000000e+00 0.000000000000000e+00 
8.125000000000001e-04 0.000000000000000e+00 0.000000000000000e+00 
8.437500000000000e-04 0.000000000000000e+00 0.000000000000000e+00 
8.437500000000000e-04 0.000000000000000e+00 0.000000000000000e+00 
8.750000000000000e-04 0.000000000000000e+00 0.000000000000000e+00 
8.750000000000000e-04 0.000000000000000e+00 0.000000000000000e+00 
9.062500000000000e-04 0.000000000000000e+00 0.000000000000000e+00 
9.062500000000000e-04 0.000000000000000e+00 0.000000000000000e+00 
9.375000000000000e-04 0.000000000000000e+00 0.000000000000000e+00 
9.375000000000000e-04 0.000000000000000e+00 0.000000000000000e+00 
9.687500000000000e-04 0.000000000000000e+00 0.000000000000000e+00 
9.687500000000000e-04 0.000000000000000e+00 0.000000000000000e+00 
1.000000000000000e-03 0.000000000000000e+00 0.000000000000000e+00 
    </DataArray>
  </Points>

  <Cells>
    <DataArray type="Int32" Name="connectivity" format="ascii">
0 1 2 3 4 5 6 7 8 9 10 11 12 13 14 15 16 17 18 19 20 21 22 23 24 25 26 27 28 29 30 31 32 33 34 35 36 37 38 39 40 41 42 43 44 45 46 47 48 49 50 51 52 53 54 55 56 57 58 59 60 61 62 63     </DataArray>
    <DataArray type="Int32" Name="offsets" format="ascii">
2 4 6 8 10 12 14 16 18 20 22 24 26 28 30 32 34 36 38 40 42 44 46 48 50 52 54 56 58 60 62 64     </DataArray>
    <DataArray type="UInt8" Name="types" format="ascii">
3 3 3 3 3 3 3 3 3 3 3 3 3 3 3 3 3 3 3 3 3 3 3 3 3 3 3 3 3 3 3 3     </DataArray>
  </Cells>

  <PointData>
    <DataArray type="Float64" Name="phi_1" format="ascii">
6.204182659100225e+03 
6.210231184857558e+03 
6.210231184857558e+03 
6.228362858642517e+03 
6.228362858642517e+03 
6.258535988439469e+03 
6.258535988439469e+03 
6.300681149384845e+03 
6.300681149384845e+03 
6.354701277718181e+03 
6.354701277718181e+03 
6.420471804660635e+03 
6.420471804660635e+03 
6.497840832433873e+03 
6.497840832433873e+03 
6.586629355079395e+03 
6.586629355079395e+03 
6.686631527069294e+03 
6.686631527069294e+03 
6.797614982917677e+03 
6.797614982917677e+03 
6.919321211092811e+03 
6.919321211092811e+03 
7.051465985510961e+03 
7.051465985510961e+03 
7.193739857772115e+03 
7.193739857772115e+03 
7.345808713082646e+03 
7.345808713082646e+03 
7.507314392510481e+03 
7.507314392510481e+03 
7.677875383846454e+03 
7.677875383846454e+03 
7.857087582909748e+03 
7.857087582909748e+03 
8.044525126647952e+03 
8.044525126647952e+03 
8.239741298756369e+03 
8.239741298756369e+03 
8.442269508283800e+03 
8.442269508283800e+03 
8.651624339726517e+03 
8.651624339726517e+03 
8.867302677468713e+03 
8.867302677468713e+03 
9.088784887746653e+03 
9.088784887746653e+03 
9.315536112305510e+03 
9.315536112305510e+03 
9.547007456303472e+03 
9.547007456303472e+03 
9.782637875886965e+03 
9.782637875886965e+03 
1.002185370264839e+04 
1.002185370264839e+04 
1.026407735397837e+04 
1.026407735397837e+04 
1.050870157344715e+04 
1.050870157344715e+04 
1.075519407485264e+04 
1.075519407485264e+04 
1.100270987539935e+04 
1.100270987539935e+04 
1.125156268823250e+04 
    </DataArray>
    <DataArray type="Float64" Name="phiAnalytic_1" format="ascii">
6.395797670551084e+03 
6.401643886732502e+03 
6.401643886732502e+03 
6.419168511093321e+03 
6.419168511093321e+03 
6.448329503572858e+03 
6.448329503572858e+03 
6.489056905651840e+03 
6.489056905651840e+03 
6.541253002548945e+03 
6.541253002548945e+03 
6.604792549941713e+03 
6.604792549941713e+03 
6.679523064853614e+03 
6.679523064853614e+03 
6.765265180241052e+03 
6.765265180241052e+03 
6.861813062702287e+03 
6.861813062702287e+03 
6.968934892613711e+03 
6.968934892613711e+03 
7.086373405877403e+03 
7.086373405877403e+03 
7.213846496336911e+03 
7.213846496336911e+03 
7.351047877785686e+03 
7.351047877785686e+03 
7.497647804354570e+03 
7.497647804354570e+03 
7.653293847921243e+03 
7.653293847921243e+03 
7.817611731036364e+03 
7.817611731036364e+03 
7.990206213708383e+03 
7.990206213708383e+03 
8.170662032232815e+03 
8.170662032232815e+03 
8.358544888093036e+03 
8.358544888093036e+03 
8.553402484799317e+03 
8.553402484799317e+03 
8.754765610372200e+03 
8.754765610372200e+03 
8.962149263017045e+03 
8.962149263017045e+03 
9.175053817379523e+03 
9.175053817379523e+03 
9.392966228619149e+03 
9.392966228619149e+03 
9.615361271390793e+03 
9.615361271390793e+03 
9.841702810684124e+03 
9.841702810684124e+03 
1.007144510133987e+04 
1.007144510133987e+04 
1.030403411294072e+04 
1.030403411294072e+04 
1.053890887666562e+04 
1.053890887666562e+04 
1.077550285059975e+04 
1.077550285059975e+04 
1.101324529991047e+04 
1.101324529991047e+04 
1.125156268823250e+04 
    </DataArray>
    <DataArray type="Float64" Name="phi_2" format="ascii">
-1.764755997724030e+05 
-1.764731835374109e+05 
-1.764731835374109e+05 
-1.764659544814705e+05 
-1.764659544814705e+05 
-1.764539711099459e+05 
-1.764539711099459e+05 
-1.764373294801388e+05 
-1.764373294801388e+05 
-1.764161610951201e+05 
-1.764161610951201e+05 
-1.763906300918440e+05 
-1.763906300918440e+05 
-1.763609298474221e+05 
-1.763609298474221e+05 
-1.763272791461363e+05 
-1.763272791461363e+05 
-1.762899180586386e+05 
-1.762899180586386e+05 
-1.762491036840770e+05 
-1.762491036840770e+05 
-1.762051058966928e+05 
-1.762051058966928e+05 
-1.761582032224878e+05 
-1.761582032224878e+05 
-1.761086789508999e+05 
-1.761086789508999e+05 
-1.760568175631883e+05 
-1.760568175631883e+05 
-1.760029015353846e+05 
-1.760029015353846e+05 
-1.759472085508552e+05 
-1.759472085508552e+05 
-1.758900091369823e+05 
-1.758900091369823e+05 
-1.758315647230125e+05 
-1.758315647230125e+05 
-1.757721261021260e+05 
-1.757721261021260e+05 
-1.757119322703239e+05 
-1.757119322703239e+05 
-1.756512096075848e+05 
-1.756512096075848e+05 
-1.755901713625656e+05 
-1.755901713625656e+05 
-1.755290174003680e+05 
-1.755290174003680e+05 
-1.754679341732863e+05 
-1.754679341732863e+05 
-1.754070948756537e+05 
-1.754070948756537e+05 
-1.753466597486003e+05 
-1.753466597486003e+05 
-1.752867764967983e+05 
-1.752867764967983e+05 
-1.752275808091064e+05 
-1.752275808091064e+05 
-1.751691968835092e+05 
-1.751691968835092e+05 
-1.751117382076360e+05 
-1.751117382076360e+05 
-1.750553075878385e+05 
-1.750553075878385e+05 
-1.750000000000000e+05 
    </DataArray>
    <DataArray type="Float64" Name="phiAnalytic_2" format="ascii">
-1.764002002923751e+05 
-1.763979355094845e+05 
-1.763979355094845e+05 
-1.763911589653323e+05 
-1.763911589653323e+05 
-1.763799236888551e+05 
-1.763799236888551e+05 
-1.763643167969418e+05 
-1.763643167969418e+05 
-1.763444576570000e+05 
-1.763444576570000e+05 
-1.763204954290333e+05 
-1.763204954290333e+05 
-1.762926060913827e+05 
-1.762926060913827e+05 
-1.762609890705926e+05 
-1.762609890705926e+05 
-1.762258636041580e+05 
-1.762258636041580e+05 
-1.761874649653116e+05 
-1.761874649653116e+05 
-1.761460406723240e+05 
-1.761460406723240e+05 
-1.761018467923257e+05 
-1.761018467923257e+05 
-1.760551444330273e+05 
-1.760551444330273e+05 
-1.760061964966236e+05 
-1.760061964966236e+05 
-1.759552647502269e+05 
-1.759552647502269e+05 
-1.759026072477764e+05 
-1.759026072477764e+05 
-1.758484761205879e+05 
-1.758484761205879e+05 
-1.757931157382837e+05 
-1.757931157382837e+05 
-1.757367612291820e+05 
-1.757367612291820e+05 
-1.756796373394638e+05 
-1.756796373394638e+05 
-1.756219576034666e+05 
-1.756219576034666e+05 
-1.755639237930272e+05 
-1.755639237930272e+05 
-1.755057256115562e+05 
-1.755057256115562e+05 
-1.754475405980702e+05 
-1.754475405980702e+05 
-1.753895342073379e+05 
-1.753895342073379e+05 
-1.753318600342313e+05 
-1.753318600342313e+05 
-1.752746601529830e+05 
-1.752746601529830e+05 
-1.752180655450551e+05 
-1.752180655450551e+05 
-1.751621965924999e+05 
-1.751621965924999e+05 
-1.751071636168676e+05 
-1.751071636168676e+05 
-1.750530674467631e+05 
-1.750530674467631e+05 
-1.750000000000000e+05 
    </DataArray>
  </PointData>
  <CellData>
    <DataArray type="Float64" Name="Owner" format="ascii">
0.000000000000000e+00 
0.000000000000000e+00 
0.000000000000000e+00 
0.000000000000000e+00 
0.000000000000000e+00 
0.000000000000000e+00 
0.000000000000000e+00 
0.000000000000000e+00 
0.000000000000000e+00 
0.000000000000000e+00 
0.000000000000000e+00 
0.000000000000000e+00 
0.000000000000000e+00 
0.000000000000000e+00 
0.000000000000000e+00 
0.000000000000000e+00 
0.000000000000000e+00 
0.000000000000000e+00 
0.000000000000000e+00 
0.000000000000000e+00 
0.000000000000000e+00 
0.000000000000000e+00 
0.000000000000000e+00 
0.000000000000000e+00 
0.000000000000000e+00 
0.000000000000000e+00 
0.000000000000000e+00 
0.000000000000000e+00 
0.000000000000000e+00 
0.000000000000000e+00 
0.000000000000000e+00 
0.000000000000000e+00 
0.000000000000000e+00 
0.000000000000000e+00 
0.000000000000000e+00 
0.000000000000000e+00 
0.000000000000000e+00 
0.000000000000000e+00 
0.000000000000000e+00 
0.000000000000000e+00 
0.000000000000000e+00 
0.000000000000000e+00 
0.000000000000000e+00 
0.000000000000000e+00 
0.000000000000000e+00 
0.000000000000000e+00 
0.000000000000000e+00 
0.000000000000000e+00 
0.000000000000000e+00 
0.000000000000000e+00 
0.000000000000000e+00 
0.000000000000000e+00 
0.000000000000000e+00 
0.000000000000000e+00 
0.000000000000000e+00 
0.000000000000000e+00 
0.000000000000000e+00 
0.000000000000000e+00 
0.000000000000000e+00 
0.000000000000000e+00 
0.000000000000000e+00 
0.000000000000000e+00 
0.000000000000000e+00 
0.000000000000000e+00 
    </DataArray>
  </CellData>
</Piece>
</UnstructuredGrid>
</VTKFile>
