<?xml version="1.0" ?> 
<!-- 
# vtk DataFile Version 3.0
-->
<VTKFile type="UnstructuredGrid" version="0.1" compressor="vtkZLibDataCompressor" byte_order="LittleEndian">
<UnstructuredGrid>
<FieldData>
<DataArray type="Float32" Name="TIME" NumberOfTuples="1" format="ascii">186.0119047625</DataArray>
</FieldData>
<Piece NumberOfPoints="64" NumberOfCells="32" >
  <Points>
    <DataArray type="Float64" NumberOfComponents="3" format="ascii">
0.000000000000000e+00 0.000000000000000e+00 0.000000000000000e+00 
3.125000000000000e-05 0.000000000000000e+00 0.000000000000000e+00 
3.125000000000000e-05 0.000000000000000e+00 0.000000000000000e+00 
6.250000000000000e-05 0.000000000000000e+00 0.000000000000000e+00 
6.250000000000000e-05 0.000000000000000e+00 0.000000000000000e+00 
9.375000000000000e-05 0.000000000000000e+00 0.000000000000000e+00 
9.375000000000000e-05 0.000000000000000e+00 0.000000000000000e+00 
1.250000000000000e-04 0.000000000000000e+00 0.000000000000000e+00 
1.250000000000000e-04 0.000000000000000e+00 0.000000000000000e+00 
1.562500000000000e-04 0.000000000000000e+00 0.000000000000000e+00 
1.562500000000000e-04 0.000000000000000e+00 0.000000000000000e+00 
1.875000000000000e-04 0.000000000000000e+00 0.000000000000000e+00 
1.875000000000000e-04 0.000000000000000e+00 0.000000000000000e+00 
2.187500000000000e-04 0.000000000000000e+00 0.000000000000000e+00 
2.187500000000000e-04 0.000000000000000e+00 0.000000000000000e+00 
2.500000000000000e-04 0.000000000000000e+00 0.000000000000000e+00 
2.500000000000000e-04 0.000000000000000e+00 0.000000000000000e+00 
2.812500000000000e-04 0.000000000000000e+00 0.000000000000000e+00 
2.812500000000000e-04 0.000000000000000e+00 0.000000000000000e+00 
3.125000000000000e-04 0.000000000000000e+00 0.000000000000000e+00 
3.125000000000000e-04 0.000000000000000e+00 0.000000000000000e+00 
3.437500000000000e-04 0.000000000000000e+00 0.000000000000000e+00 
3.437500000000000e-04 0.000000000000000e+00 0.000000000000000e+00 
3.750000000000000e-04 0.000000000000000e+00 0.000000000000000e+00 
3.750000000000000e-04 0.000000000000000e+00 0.000000000000000e+00 
4.062500000000000e-04 0.000000000000000e+00 0.000000000000000e+00 
4.062500000000000e-04 0.000000000000000e+00 0.000000000000000e+00 
4.375000000000000e-04 0.000000000000000e+00 0.000000000000000e+00 
4.375000000000000e-04 0.000000000000000e+00 0.000000000000000e+00 
4.687500000000000e-04 0.000000000000000e+00 0.000000000000000e+00 
4.687500000000000e-04 0.000000000000000e+00 0.000000000000000e+00 
5.000000000000000e-04 0.000000000000000e+00 0.000000000000000e+00 
5.000000000000000e-04 0.000000000000000e+00 0.000000000000000e+00 
5.312500000000000e-04 0.000000000000000e+00 0.000000000000000e+00 
5.312500000000000e-04 0.000000000000000e+00 0.000000000000000e+00 
5.625000000000001e-04 0.000000000000000e+00 0.000000000000000e+00 
5.625000000000001e-04 0.000000000000000e+00 0.000000000000000e+00 
5.937500000000000e-04 0.000000000000000e+00 0.000000000000000e+00 
5.937500000000000e-04 0.000000000000000e+00 0.000000000000000e+00 
6.250000000000000e-04 0.000000000000000e+00 0.000000000000000e+00 
6.250000000000000e-04 0.000000000000000e+00 0.000000000000000e+00 
6.562500000000000e-04 0.000000000000000e+00 0.000000000000000e+00 
6.562500000000000e-04 0.000000000000000e+00 0.000000000000000e+00 
6.875000000000000e-04 0.000000000000000e+00 0.000000000000000e+00 
6.875000000000000e-04 0.000000000000000e+00 0.000000000000000e+00 
7.187500000000000e-04 0.000000000000000e+00 0.000000000000000e+00 
7.187500000000000e-04 0.000000000000000e+00 0.000000000000000e+00 
7.500000000000000e-04 0.000000000000000e+00 0.000000000000000e+00 
7.500000000000000e-04 0.000000000000000e+00 0.000000000000000e+00 
7.812500000000000e-04 0.000000000000000e+00 0.000000000000000e+00 
7.812500000000000e-04 0.000000000000000e+00 0.000000000000000e+00 
8.125000000000001e-04 0.000000000000000e+00 0.000000000000000e+00 
8.125000000000001e-04 0.000000000000000e+00 0.000000000000000e+00 
8.437500000000000e-04 0.000000000000000e+00 0.000000000000000e+00 
8.437500000000000e-04 0.000000000000000e+00 0.000000000000000e+00 
8.750000000000000e-04 0.000000000000000e+00 0.000000000000000e+00 
8.750000000000000e-04 0.000000000000000e+00 0.000000000000000e+00 
9.062500000000000e-04 0.000000000000000e+00 0.000000000000000e+00 
9.062500000000000e-04 0.000000000000000e+00 0.000000000000000e+00 
9.375000000000000e-04 0.000000000000000e+00 0.000000000000000e+00 
9.375000000000000e-04 0.000000000000000e+00 0.000000000000000e+00 
9.687500000000000e-04 0.000000000000000e+00 0.000000000000000e+00 
9.687500000000000e-04 0.000000000000000e+00 0.000000000000000e+00 
1.000000000000000e-03 0.000000000000000e+00 0.000000000000000e+00 
    </DataArray>
  </Points>

  <Cells>
    <DataArray type="Int32" Name="connectivity" format="ascii">
0 1 2 3 4 5 6 7 8 9 10 11 12 13 14 15 16 17 18 19 20 21 22 23 24 25 26 27 28 29 30 31 32 33 34 35 36 37 38 39 40 41 42 43 44 45 46 47 48 49 50 51 52 53 54 55 56 57 58 59 60 61 62 63     </DataArray>
    <DataArray type="Int32" Name="offsets" format="ascii">
2 4 6 8 10 12 14 16 18 20 22 24 26 28 30 32 34 36 38 40 42 44 46 48 50 52 54 56 58 60 62 64     </DataArray>
    <DataArray type="UInt8" Name="types" format="ascii">
3 3 3 3 3 3 3 3 3 3 3 3 3 3 3 3 3 3 3 3 3 3 3 3 3 3 3 3 3 3 3 3     </DataArray>
  </Cells>

  <PointData>
    <DataArray type="Float64" Name="phi_1" format="ascii">
1.724548572161468e+03 
1.733077385239579e+03 
1.733077385239579e+03 
1.758696300720728e+03 
1.758696300720728e+03 
1.801501976347771e+03 
1.801501976347771e+03 
1.861652953041334e+03 
1.861652953041334e+03 
1.939365866892010e+03 
1.939365866892010e+03 
2.034910216358173e+03 
2.034910216358173e+03 
2.148601720009381e+03 
2.148601720009381e+03 
2.280794280440653e+03 
2.280794280440653e+03 
2.431870550276592e+03 
2.431870550276592e+03 
2.602231085345101e+03 
2.602231085345101e+03 
2.792282073094036e+03 
2.792282073094036e+03 
3.002421642238142e+03 
3.002421642238142e+03 
3.233024791246391e+03 
3.233024791246391e+03 
3.484427016687147e+03 
3.484427016687147e+03 
3.756906776022626e+03 
3.756906776022626e+03 
4.050666982093328e+03 
4.050666982093328e+03 
4.365815797436275e+03 
4.365815797436275e+03 
4.702347074968839e+03 
4.702347074968839e+03 
5.060120875482316e+03 
5.060120875482316e+03 
5.438844581420453e+03 
5.438844581420453e+03 
5.838055209329760e+03 
5.838055209329760e+03 
6.257103624483354e+03 
6.257103624483354e+03 
6.695141359609629e+03 
6.695141359609629e+03 
7.151111067699679e+03 
7.151111067699679e+03 
7.623740580959483e+03 
7.623740580959483e+03 
8.111544677035292e+03 
8.111544677035292e+03 
8.612822544021319e+03 
8.612822544021319e+03 
9.125700542903172e+03 
9.125700542903172e+03 
9.648031873747124e+03 
9.648031873747124e+03 
1.017787871329678e+04 
1.017787871329678e+04 
1.071178999144508e+04 
1.071178999144508e+04 
1.125156268823250e+04 
    </DataArray>
    <DataArray type="Float64" Name="phiAnalytic_1" format="ascii">
1.679683184175121e+03 
1.689792034107347e+03 
1.689792034107347e+03 
1.720124783802798e+03 
1.720124783802798e+03 
1.770699368933623e+03 
1.770699368933623e+03 
1.841543483787060e+03 
1.841543483787060e+03 
1.932691335435506e+03 
1.932691335435506e+03 
2.044179202408862e+03 
2.044179202408862e+03 
2.176039898370854e+03 
2.176039898370854e+03 
2.328296266715460e+03 
2.328296266715460e+03 
2.500953854995538e+03 
2.500953854995538e+03 
2.693992938200221e+03 
2.693992938200221e+03 
2.907360076678759e+03 
2.907360076678759e+03 
3.140959407583482e+03 
3.140959407583482e+03 
3.394643877749717e+03 
3.394643877749717e+03 
3.668206630689637e+03 
3.668206630689637e+03 
3.961372760670562e+03 
3.961372760670562e+03 
4.273791642581494e+03 
4.273791642581494e+03 
4.605030037461413e+03 
4.605030037461413e+03 
4.954566160263475e+03 
4.954566160263475e+03 
5.321784878855386e+03 
5.321784878855386e+03 
5.705974191704760e+03 
5.705974191704760e+03 
6.106323106565927e+03 
6.106323106565927e+03 
6.521921014263629e+03 
6.521921014263629e+03 
6.951758620939482e+03 
6.951758620939482e+03 
7.394730469545338e+03 
7.394730469545338e+03 
7.849639047653887e+03 
7.849639047653887e+03 
8.315200444576172e+03 
8.315200444576172e+03 
8.790051487121644e+03 
8.790051487121644e+03 
9.272758250908817e+03 
9.272758250908817e+03 
9.761825813717787e+03 
9.761825813717787e+03 
1.025570908971790e+04 
1.025570908971790e+04 
1.075282455919296e+04 
1.075282455919296e+04 
1.125156268823250e+04 
    </DataArray>
    <DataArray type="Float64" Name="phi_2" format="ascii">
-1.796491302719844e+05 
-1.796368813050605e+05 
-1.796368813050605e+05 
-1.796004485265210e+05 
-1.796004485265210e+05 
-1.795407473083079e+05 
-1.795407473083079e+05 
-1.794592181471080e+05 
-1.794592181471080e+05 
-1.793577145363114e+05 
-1.793577145363114e+05 
-1.792383725122761e+05 
-1.792383725122761e+05 
-1.791034796467180e+05 
-1.791034796467180e+05 
-1.789553577372743e+05 
-1.789553577372743e+05 
-1.787962680657352e+05 
-1.787962680657352e+05 
-1.786283426334978e+05 
-1.786283426334978e+05 
-1.784535404610389e+05 
-1.784535404610389e+05 
-1.782736253303946e+05 
-1.782736253303946e+05 
-1.780901601584372e+05 
-1.780901601584372e+05 
-1.779045131177627e+05 
-1.779045131177627e+05 
-1.777178712149197e+05 
-1.777178712149197e+05 
-1.775312579140470e+05 
-1.775312579140470e+05 
-1.773455523035846e+05 
-1.773455523035846e+05 
-1.771615081057398e+05 
-1.771615081057398e+05 
-1.769797714679198e+05 
-1.769797714679198e+05 
-1.768008969485834e+05 
-1.768008969485834e+05 
-1.766253614384292e+05 
-1.766253614384292e+05 
-1.764535759723629e+05 
-1.764535759723629e+05 
-1.762858955175128e+05 
-1.762858955175128e+05 
-1.761226268972864e+05 
-1.761226268972864e+05 
-1.759640350385811e+05 
-1.759640350385811e+05 
-1.758103477694003e+05 
-1.758103477694003e+05 
-1.756617592984000e+05 
-1.756617592984000e+05 
-1.755184328437189e+05 
-1.755184328437189e+05 
-1.753805016890695e+05 
-1.753805016890695e+05 
-1.752480720930954e+05 
-1.752480720930954e+05 
-1.751212170013165e+05 
-1.751212170013165e+05 
-1.750000000000000e+05 
    </DataArray>
    <DataArray type="Float64" Name="phiAnalytic_2" format="ascii">
-1.797144705821353e+05 
-1.796995969986551e+05 
-1.796995969986551e+05 
-1.796554954051957e+05 
-1.796554954051957e+05 
-1.795836647918337e+05 
-1.795836647918337e+05 
-1.794864220133990e+05 
-1.794864220133990e+05 
-1.793666716607516e+05 
-1.793666716607516e+05 
-1.792276524580462e+05 
-1.792276524580462e+05 
-1.790727006740483e+05 
-1.790727006740483e+05 
-1.789050578417670e+05 
-1.789050578417670e+05 
-1.787277344837887e+05 
-1.787277344837887e+05 
-1.785434286925426e+05 
-1.785434286925426e+05 
-1.783544905658644e+05 
-1.783544905658644e+05 
-1.781629204410621e+05 
-1.781629204410621e+05 
-1.779703891676165e+05 
-1.779703891676165e+05 
-1.777782707058169e+05 
-1.777782707058169e+05 
-1.775876799178031e+05 
-1.775876799178031e+05 
-1.773995108170290e+05 
-1.773995108170290e+05 
-1.772144724574573e+05 
-1.772144724574573e+05 
-1.770331210221051e+05 
-1.770331210221051e+05 
-1.768558875817172e+05 
-1.768558875817172e+05 
-1.766831015480549e+05 
-1.766831015480549e+05 
-1.765150101492903e+05 
-1.765150101492903e+05 
-1.763517943941090e+05 
-1.763517943941090e+05 
-1.761935820300768e+05 
-1.761935820300768e+05 
-1.760404579842024e+05 
-1.760404579842024e+05 
-1.758924727275774e+05 
-1.758924727275774e+05 
-1.757496489486894e+05 
-1.757496489486894e+05 
-1.756119868613731e+05 
-1.756119868613731e+05 
-1.754794684186001e+05 
-1.754794684186001e+05 
-1.753520606547734e+05 
-1.753520606547734e+05 
-1.752297183376014e+05 
-1.752297183376014e+05 
-1.751123860757812e+05 
-1.751123860757812e+05 
-1.750000000000000e+05 
    </DataArray>
  </PointData>
  <CellData>
    <DataArray type="Float64" Name="Owner" format="ascii">
0.000000000000000e+00 
0.000000000000000e+00 
0.000000000000000e+00 
0.000000000000000e+00 
0.000000000000000e+00 
0.000000000000000e+00 
0.000000000000000e+00 
0.000000000000000e+00 
0.000000000000000e+00 
0.000000000000000e+00 
0.000000000000000e+00 
0.000000000000000e+00 
0.000000000000000e+00 
0.000000000000000e+00 
0.000000000000000e+00 
0.000000000000000e+00 
0.000000000000000e+00 
0.000000000000000e+00 
0.000000000000000e+00 
0.000000000000000e+00 
0.000000000000000e+00 
0.000000000000000e+00 
0.000000000000000e+00 
0.000000000000000e+00 
0.000000000000000e+00 
0.000000000000000e+00 
0.000000000000000e+00 
0.000000000000000e+00 
0.000000000000000e+00 
0.000000000000000e+00 
0.000000000000000e+00 
0.000000000000000e+00 
0.000000000000000e+00 
0.000000000000000e+00 
0.000000000000000e+00 
0.000000000000000e+00 
0.000000000000000e+00 
0.000000000000000e+00 
0.000000000000000e+00 
0.000000000000000e+00 
0.000000000000000e+00 
0.000000000000000e+00 
0.000000000000000e+00 
0.000000000000000e+00 
0.000000000000000e+00 
0.000000000000000e+00 
0.000000000000000e+00 
0.000000000000000e+00 
0.000000000000000e+00 
0.000000000000000e+00 
0.000000000000000e+00 
0.000000000000000e+00 
0.000000000000000e+00 
0.000000000000000e+00 
0.000000000000000e+00 
0.000000000000000e+00 
0.000000000000000e+00 
0.000000000000000e+00 
0.000000000000000e+00 
0.000000000000000e+00 
0.000000000000000e+00 
0.000000000000000e+00 
0.000000000000000e+00 
0.000000000000000e+00 
    </DataArray>
  </CellData>
</Piece>
</UnstructuredGrid>
</VTKFile>
