<?xml version="1.0" ?> 
<!-- 
# vtk DataFile Version 3.0
-->
<VTKFile type="UnstructuredGrid" version="0.1" compressor="vtkZLibDataCompressor" byte_order="LittleEndian">
<UnstructuredGrid>
<FieldData>
<DataArray type="Float32" Name="TIME" NumberOfTuples="1" format="ascii">706.8452380975</DataArray>
</FieldData>
<Piece NumberOfPoints="64" NumberOfCells="32" >
  <Points>
    <DataArray type="Float64" NumberOfComponents="3" format="ascii">
0.000000000000000e+00 0.000000000000000e+00 0.000000000000000e+00 
3.125000000000000e-05 0.000000000000000e+00 0.000000000000000e+00 
3.125000000000000e-05 0.000000000000000e+00 0.000000000000000e+00 
6.250000000000000e-05 0.000000000000000e+00 0.000000000000000e+00 
6.250000000000000e-05 0.000000000000000e+00 0.000000000000000e+00 
9.375000000000000e-05 0.000000000000000e+00 0.000000000000000e+00 
9.375000000000000e-05 0.000000000000000e+00 0.000000000000000e+00 
1.250000000000000e-04 0.000000000000000e+00 0.000000000000000e+00 
1.250000000000000e-04 0.000000000000000e+00 0.000000000000000e+00 
1.562500000000000e-04 0.000000000000000e+00 0.000000000000000e+00 
1.562500000000000e-04 0.000000000000000e+00 0.000000000000000e+00 
1.875000000000000e-04 0.000000000000000e+00 0.000000000000000e+00 
1.875000000000000e-04 0.000000000000000e+00 0.000000000000000e+00 
2.187500000000000e-04 0.000000000000000e+00 0.000000000000000e+00 
2.187500000000000e-04 0.000000000000000e+00 0.000000000000000e+00 
2.500000000000000e-04 0.000000000000000e+00 0.000000000000000e+00 
2.500000000000000e-04 0.000000000000000e+00 0.000000000000000e+00 
2.812500000000000e-04 0.000000000000000e+00 0.000000000000000e+00 
2.812500000000000e-04 0.000000000000000e+00 0.000000000000000e+00 
3.125000000000000e-04 0.000000000000000e+00 0.000000000000000e+00 
3.125000000000000e-04 0.000000000000000e+00 0.000000000000000e+00 
3.437500000000000e-04 0.000000000000000e+00 0.000000000000000e+00 
3.437500000000000e-04 0.000000000000000e+00 0.000000000000000e+00 
3.750000000000000e-04 0.000000000000000e+00 0.000000000000000e+00 
3.750000000000000e-04 0.000000000000000e+00 0.000000000000000e+00 
4.062500000000000e-04 0.000000000000000e+00 0.000000000000000e+00 
4.062500000000000e-04 0.000000000000000e+00 0.000000000000000e+00 
4.375000000000000e-04 0.000000000000000e+00 0.000000000000000e+00 
4.375000000000000e-04 0.000000000000000e+00 0.000000000000000e+00 
4.687500000000000e-04 0.000000000000000e+00 0.000000000000000e+00 
4.687500000000000e-04 0.000000000000000e+00 0.000000000000000e+00 
5.000000000000000e-04 0.000000000000000e+00 0.000000000000000e+00 
5.000000000000000e-04 0.000000000000000e+00 0.000000000000000e+00 
5.312500000000000e-04 0.000000000000000e+00 0.000000000000000e+00 
5.312500000000000e-04 0.000000000000000e+00 0.000000000000000e+00 
5.625000000000001e-04 0.000000000000000e+00 0.000000000000000e+00 
5.625000000000001e-04 0.000000000000000e+00 0.000000000000000e+00 
5.937500000000000e-04 0.000000000000000e+00 0.000000000000000e+00 
5.937500000000000e-04 0.000000000000000e+00 0.000000000000000e+00 
6.250000000000000e-04 0.000000000000000e+00 0.000000000000000e+00 
6.250000000000000e-04 0.000000000000000e+00 0.000000000000000e+00 
6.562500000000000e-04 0.000000000000000e+00 0.000000000000000e+00 
6.562500000000000e-04 0.000000000000000e+00 0.000000000000000e+00 
6.875000000000000e-04 0.000000000000000e+00 0.000000000000000e+00 
6.875000000000000e-04 0.000000000000000e+00 0.000000000000000e+00 
7.187500000000000e-04 0.000000000000000e+00 0.000000000000000e+00 
7.187500000000000e-04 0.000000000000000e+00 0.000000000000000e+00 
7.500000000000000e-04 0.000000000000000e+00 0.000000000000000e+00 
7.500000000000000e-04 0.000000000000000e+00 0.000000000000000e+00 
7.812500000000000e-04 0.000000000000000e+00 0.000000000000000e+00 
7.812500000000000e-04 0.000000000000000e+00 0.000000000000000e+00 
8.125000000000001e-04 0.000000000000000e+00 0.000000000000000e+00 
8.125000000000001e-04 0.000000000000000e+00 0.000000000000000e+00 
8.437500000000000e-04 0.000000000000000e+00 0.000000000000000e+00 
8.437500000000000e-04 0.000000000000000e+00 0.000000000000000e+00 
8.750000000000000e-04 0.000000000000000e+00 0.000000000000000e+00 
8.750000000000000e-04 0.000000000000000e+00 0.000000000000000e+00 
9.062500000000000e-04 0.000000000000000e+00 0.000000000000000e+00 
9.062500000000000e-04 0.000000000000000e+00 0.000000000000000e+00 
9.375000000000000e-04 0.000000000000000e+00 0.000000000000000e+00 
9.375000000000000e-04 0.000000000000000e+00 0.000000000000000e+00 
9.687500000000000e-04 0.000000000000000e+00 0.000000000000000e+00 
9.687500000000000e-04 0.000000000000000e+00 0.000000000000000e+00 
1.000000000000000e-03 0.000000000000000e+00 0.000000000000000e+00 
    </DataArray>
  </Points>

  <Cells>
    <DataArray type="Int32" Name="connectivity" format="ascii">
0 1 2 3 4 5 6 7 8 9 10 11 12 13 14 15 16 17 18 19 20 21 22 23 24 25 26 27 28 29 30 31 32 33 34 35 36 37 38 39 40 41 42 43 44 45 46 47 48 49 50 51 52 53 54 55 56 57 58 59 60 61 62 63     </DataArray>
    <DataArray type="Int32" Name="offsets" format="ascii">
2 4 6 8 10 12 14 16 18 20 22 24 26 28 30 32 34 36 38 40 42 44 46 48 50 52 54 56 58 60 62 64     </DataArray>
    <DataArray type="UInt8" Name="types" format="ascii">
3 3 3 3 3 3 3 3 3 3 3 3 3 3 3 3 3 3 3 3 3 3 3 3 3 3 3 3 3 3 3 3     </DataArray>
  </Cells>

  <PointData>
    <DataArray type="Float64" Name="phi_1" format="ascii">
7.768287945968244e+03 
7.772480524242310e+03 
7.772480524242310e+03 
7.785048220026324e+03 
7.785048220026324e+03 
7.805960939043907e+03 
7.805960939043907e+03 
7.835168600288517e+03 
7.835168600288517e+03 
7.872601250128536e+03 
7.872601250128536e+03 
7.918169221917574e+03 
7.918169221917574e+03 
7.971763340942758e+03 
7.971763340942758e+03 
8.033255174507389e+03 
8.033255174507389e+03 
8.102497326862082e+03 
8.102497326862082e+03 
8.179323778629736e+03 
8.179323778629736e+03 
8.263550270277083e+03 
8.263550270277083e+03 
8.354974729094904e+03 
8.354974729094904e+03 
8.453377739033025e+03 
8.453377739033025e+03 
8.558523052638508e+03 
8.558523052638508e+03 
8.670158144204546e+03 
8.670158144204546e+03 
8.788014803135446e+03 
8.788014803135446e+03 
8.911809766384276e+03 
8.911809766384276e+03 
9.041245388710005e+03 
9.041245388710005e+03 
9.176010349323198e+03 
9.176010349323198e+03 
9.315780393534011e+03 
9.315780393534011e+03 
9.460219107221936e+03 
9.460219107221936e+03 
9.608978724333361e+03 
9.608978724333361e+03 
9.761700958055413e+03 
9.761700958055413e+03 
9.918017881667669e+03 
9.918017881667669e+03 
1.007755275158113e+04 
1.007755275158113e+04 
1.023992116670687e+04 
1.023992116670687e+04 
1.040473107068528e+04 
1.040473107068528e+04 
1.057158720439643e+04 
1.057158720439643e+04 
1.074007890163914e+04 
1.074007890163914e+04 
1.090983062099348e+04 
1.090983062099348e+04 
1.108031653777027e+04 
1.108031653777027e+04 
1.125156268823250e+04 
    </DataArray>
    <DataArray type="Float64" Name="phiAnalytic_1" format="ascii">
7.949023124791669e+03 
7.953001092259014e+03 
7.953001092259014e+03 
7.964925413252164e+03 
7.964925413252164e+03 
7.984767366586596e+03 
7.984767366586596e+03 
8.012479160373876e+03 
8.012479160373876e+03 
8.047994046959185e+03 
8.047994046959185e+03 
8.091226483452021e+03 
8.091226483452021e+03 
8.142072337469242e+03 
8.142072337469242e+03 
8.200409137601995e+03 
8.200409137601995e+03 
8.266096368011835e+03 
8.266096368011835e+03 
8.338975806455968e+03 
8.338975806455968e+03 
8.418871904937921e+03 
8.418871904937921e+03 
8.505592212077847e+03 
8.505592212077847e+03 
8.598927836196663e+03 
8.598927836196663e+03 
8.698653948010278e+03 
8.698653948010278e+03 
8.804530321734639e+03 
8.804530321734639e+03 
8.916301913309449e+03 
8.916301913309449e+03 
9.033699474358471e+03 
9.033699474358471e+03 
9.156440200417293e+03 
9.156440200417293e+03 
9.284228411875958e+03 
9.284228411875958e+03 
9.416756266003724e+03 
9.416756266003724e+03 
9.553704498346988e+03 
9.553704498346988e+03 
9.694743191719090e+03 
9.694743191719090e+03 
9.839532570932606e+03 
9.839532570932606e+03 
9.987723821360996e+03 
9.987723821360996e+03 
1.013895992935731e+04 
1.013895992935731e+04 
1.029287654250331e+04 
1.029287654250331e+04 
1.044910284761289e+04 
1.044910284761289e+04 
1.060726246436917e+04 
1.060726246436917e+04 
1.076697435243570e+04 
1.076697435243570e+04 
1.092785372984826e+04 
1.092785372984826e+04 
1.108951300046529e+04 
1.108951300046529e+04 
1.125156268823250e+04 
    </DataArray>
    <DataArray type="Float64" Name="phi_2" format="ascii">
-1.759182964678034e+05 
-1.759169587589281e+05 
-1.759169587589281e+05 
-1.759129531586201e+05 
-1.759129531586201e+05 
-1.759063021404489e+05 
-1.759063021404489e+05 
-1.758970428121890e+05 
-1.758970428121890e+05 
-1.758852264042637e+05 
-1.758852264042637e+05 
-1.758709175744321e+05 
-1.758709175744321e+05 
-1.758541935483434e+05 
-1.758541935483434e+05 
-1.758351431195239e+05 
-1.758351431195239e+05 
-1.758138655352239e+05 
-1.758138655352239e+05 
-1.757904692962584e+05 
-1.757904692962584e+05 
-1.757650708995364e+05 
-1.757650708995364e+05 
-1.757377935514459e+05 
-1.757377935514459e+05 
-1.757087658787777e+05 
-1.757087658787777e+05 
-1.756781206615917e+05 
-1.756781206615917e+05 
-1.756459936095416e+05 
-1.756459936095416e+05 
-1.756125221998822e+05 
-1.756125221998822e+05 
-1.755778445918745e+05 
-1.755778445918745e+05 
-1.755420986287575e+05 
-1.755420986287575e+05 
-1.755054209350215e+05 
-1.755054209350215e+05 
-1.754679461135172e+05 
-1.754679461135172e+05 
-1.754298060440575e+05 
-1.754298060440575e+05 
-1.753911292826726e+05 
-1.753911292826726e+05 
-1.753520405585820e+05 
-1.753520405585820e+05 
-1.753126603643153e+05 
-1.753126603643153e+05 
-1.752731046329845e+05 
-1.752731046329845e+05 
-1.752334844963933e+05 
-1.752334844963933e+05 
-1.751939061149441e+05 
-1.751939061149441e+05 
-1.751544705779906e+05 
-1.751544705779906e+05 
-1.751152738438303e+05 
-1.751152738438303e+05 
-1.750764067970627e+05 
-1.750764067970627e+05 
-1.750379551029305e+05 
-1.750379551029305e+05 
-1.750000000000000e+05 
    </DataArray>
    <DataArray type="Float64" Name="phiAnalytic_2" format="ascii">
-1.758612854794853e+05 
-1.758600453025357e+05 
-1.758600453025357e+05 
-1.758563314720753e+05 
-1.758563314720753e+05 
-1.758501640005184e+05 
-1.758501640005184e+05 
-1.758415759485270e+05 
-1.758415759485270e+05 
-1.758306129935056e+05 
-1.758306129935056e+05 
-1.758173328421575e+05 
-1.758173328421575e+05 
-1.758018045028277e+05 
-1.758018045028277e+05 
-1.757841074365853e+05 
-1.757841074365853e+05 
-1.757643306084028e+05 
-1.757643306084028e+05 
-1.757425714613030e+05 
-1.757425714613030e+05 
-1.757189348369632e+05 
-1.757189348369632e+05 
-1.756935318660293e+05 
-1.756935318660293e+05 
-1.756664788503883e+05 
-1.756664788503883e+05 
-1.756378961579875e+05 
-1.756378961579875e+05 
-1.756079071486211e+05 
-1.756079071486211e+05 
-1.755766371465654e+05 
-1.755766371465654e+05 
-1.755442124731946e+05 
-1.755442124731946e+05 
-1.755107595498766e+05 
-1.755107595498766e+05 
-1.754764040786593e+05 
-1.754764040786593e+05 
-1.754412703056170e+05 
-1.754412703056170e+05 
-1.754054803693022e+05 
-1.754054803693022e+05 
-1.753691537346016e+05 
-1.753691537346016e+05 
-1.753324067104603e+05 
-1.753324067104603e+05 
-1.752953520484201e+05 
-1.752953520484201e+05 
-1.752580986177225e+05 
-1.752580986177225e+05 
-1.752207511518315e+05 
-1.752207511518315e+05 
-1.751834100606139e+05 
-1.751834100606139e+05 
-1.751461713020443e+05 
-1.751461713020443e+05 
-1.751091263071421e+05 
-1.751091263071421e+05 
-1.750723619518617e+05 
-1.750723619518617e+05 
-1.750359605698191e+05 
-1.750359605698191e+05 
-1.750000000000000e+05 
    </DataArray>
  </PointData>
  <CellData>
    <DataArray type="Float64" Name="Owner" format="ascii">
0.000000000000000e+00 
0.000000000000000e+00 
0.000000000000000e+00 
0.000000000000000e+00 
0.000000000000000e+00 
0.000000000000000e+00 
0.000000000000000e+00 
0.000000000000000e+00 
0.000000000000000e+00 
0.000000000000000e+00 
0.000000000000000e+00 
0.000000000000000e+00 
0.000000000000000e+00 
0.000000000000000e+00 
0.000000000000000e+00 
0.000000000000000e+00 
0.000000000000000e+00 
0.000000000000000e+00 
0.000000000000000e+00 
0.000000000000000e+00 
0.000000000000000e+00 
0.000000000000000e+00 
0.000000000000000e+00 
0.000000000000000e+00 
0.000000000000000e+00 
0.000000000000000e+00 
0.000000000000000e+00 
0.000000000000000e+00 
0.000000000000000e+00 
0.000000000000000e+00 
0.000000000000000e+00 
0.000000000000000e+00 
0.000000000000000e+00 
0.000000000000000e+00 
0.000000000000000e+00 
0.000000000000000e+00 
0.000000000000000e+00 
0.000000000000000e+00 
0.000000000000000e+00 
0.000000000000000e+00 
0.000000000000000e+00 
0.000000000000000e+00 
0.000000000000000e+00 
0.000000000000000e+00 
0.000000000000000e+00 
0.000000000000000e+00 
0.000000000000000e+00 
0.000000000000000e+00 
0.000000000000000e+00 
0.000000000000000e+00 
0.000000000000000e+00 
0.000000000000000e+00 
0.000000000000000e+00 
0.000000000000000e+00 
0.000000000000000e+00 
0.000000000000000e+00 
0.000000000000000e+00 
0.000000000000000e+00 
0.000000000000000e+00 
0.000000000000000e+00 
0.000000000000000e+00 
0.000000000000000e+00 
0.000000000000000e+00 
0.000000000000000e+00 
    </DataArray>
  </CellData>
</Piece>
</UnstructuredGrid>
</VTKFile>
