<?xml version="1.0" ?> 
<!-- 
# vtk DataFile Version 3.0
-->
<VTKFile type="UnstructuredGrid" version="0.1" compressor="vtkZLibDataCompressor" byte_order="LittleEndian">
<UnstructuredGrid>
<FieldData>
<DataArray type="Float32" Name="TIME" NumberOfTuples="1" format="ascii">930.0595238125</DataArray>
</FieldData>
<Piece NumberOfPoints="64" NumberOfCells="32" >
  <Points>
    <DataArray type="Float64" NumberOfComponents="3" format="ascii">
0.000000000000000e+00 0.000000000000000e+00 0.000000000000000e+00 
3.125000000000000e-05 0.000000000000000e+00 0.000000000000000e+00 
3.125000000000000e-05 0.000000000000000e+00 0.000000000000000e+00 
6.250000000000000e-05 0.000000000000000e+00 0.000000000000000e+00 
6.250000000000000e-05 0.000000000000000e+00 0.000000000000000e+00 
9.375000000000000e-05 0.000000000000000e+00 0.000000000000000e+00 
9.375000000000000e-05 0.000000000000000e+00 0.000000000000000e+00 
1.250000000000000e-04 0.000000000000000e+00 0.000000000000000e+00 
1.250000000000000e-04 0.000000000000000e+00 0.000000000000000e+00 
1.562500000000000e-04 0.000000000000000e+00 0.000000000000000e+00 
1.562500000000000e-04 0.000000000000000e+00 0.000000000000000e+00 
1.875000000000000e-04 0.000000000000000e+00 0.000000000000000e+00 
1.875000000000000e-04 0.000000000000000e+00 0.000000000000000e+00 
2.187500000000000e-04 0.000000000000000e+00 0.000000000000000e+00 
2.187500000000000e-04 0.000000000000000e+00 0.000000000000000e+00 
2.500000000000000e-04 0.000000000000000e+00 0.000000000000000e+00 
2.500000000000000e-04 0.000000000000000e+00 0.000000000000000e+00 
2.812500000000000e-04 0.000000000000000e+00 0.000000000000000e+00 
2.812500000000000e-04 0.000000000000000e+00 0.000000000000000e+00 
3.125000000000000e-04 0.000000000000000e+00 0.000000000000000e+00 
3.125000000000000e-04 0.000000000000000e+00 0.000000000000000e+00 
3.437500000000000e-04 0.000000000000000e+00 0.000000000000000e+00 
3.437500000000000e-04 0.000000000000000e+00 0.000000000000000e+00 
3.750000000000000e-04 0.000000000000000e+00 0.000000000000000e+00 
3.750000000000000e-04 0.000000000000000e+00 0.000000000000000e+00 
4.062500000000000e-04 0.000000000000000e+00 0.000000000000000e+00 
4.062500000000000e-04 0.000000000000000e+00 0.000000000000000e+00 
4.375000000000000e-04 0.000000000000000e+00 0.000000000000000e+00 
4.375000000000000e-04 0.000000000000000e+00 0.000000000000000e+00 
4.687500000000000e-04 0.000000000000000e+00 0.000000000000000e+00 
4.687500000000000e-04 0.000000000000000e+00 0.000000000000000e+00 
5.000000000000000e-04 0.000000000000000e+00 0.000000000000000e+00 
5.000000000000000e-04 0.000000000000000e+00 0.000000000000000e+00 
5.312500000000000e-04 0.000000000000000e+00 0.000000000000000e+00 
5.312500000000000e-04 0.000000000000000e+00 0.000000000000000e+00 
5.625000000000001e-04 0.000000000000000e+00 0.000000000000000e+00 
5.625000000000001e-04 0.000000000000000e+00 0.000000000000000e+00 
5.937500000000000e-04 0.000000000000000e+00 0.000000000000000e+00 
5.937500000000000e-04 0.000000000000000e+00 0.000000000000000e+00 
6.250000000000000e-04 0.000000000000000e+00 0.000000000000000e+00 
6.250000000000000e-04 0.000000000000000e+00 0.000000000000000e+00 
6.562500000000000e-04 0.000000000000000e+00 0.000000000000000e+00 
6.562500000000000e-04 0.000000000000000e+00 0.000000000000000e+00 
6.875000000000000e-04 0.000000000000000e+00 0.000000000000000e+00 
6.875000000000000e-04 0.000000000000000e+00 0.000000000000000e+00 
7.187500000000000e-04 0.000000000000000e+00 0.000000000000000e+00 
7.187500000000000e-04 0.000000000000000e+00 0.000000000000000e+00 
7.500000000000000e-04 0.000000000000000e+00 0.000000000000000e+00 
7.500000000000000e-04 0.000000000000000e+00 0.000000000000000e+00 
7.812500000000000e-04 0.000000000000000e+00 0.000000000000000e+00 
7.812500000000000e-04 0.000000000000000e+00 0.000000000000000e+00 
8.125000000000001e-04 0.000000000000000e+00 0.000000000000000e+00 
8.125000000000001e-04 0.000000000000000e+00 0.000000000000000e+00 
8.437500000000000e-04 0.000000000000000e+00 0.000000000000000e+00 
8.437500000000000e-04 0.000000000000000e+00 0.000000000000000e+00 
8.750000000000000e-04 0.000000000000000e+00 0.000000000000000e+00 
8.750000000000000e-04 0.000000000000000e+00 0.000000000000000e+00 
9.062500000000000e-04 0.000000000000000e+00 0.000000000000000e+00 
9.062500000000000e-04 0.000000000000000e+00 0.000000000000000e+00 
9.375000000000000e-04 0.000000000000000e+00 0.000000000000000e+00 
9.375000000000000e-04 0.000000000000000e+00 0.000000000000000e+00 
9.687500000000000e-04 0.000000000000000e+00 0.000000000000000e+00 
9.687500000000000e-04 0.000000000000000e+00 0.000000000000000e+00 
1.000000000000000e-03 0.000000000000000e+00 0.000000000000000e+00 
    </DataArray>
  </Points>

  <Cells>
    <DataArray type="Int32" Name="connectivity" format="ascii">
0 1 2 3 4 5 6 7 8 9 10 11 12 13 14 15 16 17 18 19 20 21 22 23 24 25 26 27 28 29 30 31 32 33 34 35 36 37 38 39 40 41 42 43 44 45 46 47 48 49 50 51 52 53 54 55 56 57 58 59 60 61 62 63     </DataArray>
    <DataArray type="Int32" Name="offsets" format="ascii">
2 4 6 8 10 12 14 16 18 20 22 24 26 28 30 32 34 36 38 40 42 44 46 48 50 52 54 56 58 60 62 64     </DataArray>
    <DataArray type="UInt8" Name="types" format="ascii">
3 3 3 3 3 3 3 3 3 3 3 3 3 3 3 3 3 3 3 3 3 3 3 3 3 3 3 3 3 3 3 3     </DataArray>
  </Cells>

  <PointData>
    <DataArray type="Float64" Name="phi_1" format="ascii">
9.020888385056980e+03 
9.023574836402813e+03 
9.023574836402813e+03 
9.031627725590806e+03 
9.031627725590806e+03 
9.045027673518382e+03 
9.045027673518382e+03 
9.063742433138839e+03 
9.063742433138839e+03 
9.087726966526545e+03 
9.087726966526545e+03 
9.116923552531238e+03 
9.116923552531238e+03 
9.151261924777229e+03 
9.151261924777229e+03 
9.190659439705543e+03 
9.190659439705543e+03 
9.235021274276305e+03 
9.235021274276305e+03 
9.284240652890216e+03 
9.284240652890216e+03 
9.338199103015586e+03 
9.338199103015586e+03 
9.396766738935024e+03 
9.396766738935024e+03 
9.459802572967325e+03 
9.459802572967325e+03 
9.527154853446791e+03 
9.527154853446791e+03 
9.598661428673255e+03 
9.598661428673255e+03 
9.674150135993195e+03 
9.674150135993195e+03 
9.753439215094211e+03 
9.753439215094211e+03 
9.836337744545554e+03 
9.836337744545554e+03 
9.922646100540753e+03 
9.922646100540753e+03 
1.001215643680679e+04 
1.001215643680679e+04 
1.010465318431529e+04 
1.010465318431529e+04 
1.019991357044098e+04 
1.019991357044098e+04 
1.029770815316218e+04 
1.029770815316218e+04 
1.039780138085239e+04 
1.039780138085239e+04 
1.049995213194394e+04 
1.049995213194394e+04 
1.060391439952055e+04 
1.060391439952055e+04 
1.070943749528466e+04 
1.070943749528466e+04 
1.081626811228943e+04 
1.081626811228943e+04 
1.092414546549819e+04 
1.092414546549819e+04 
1.103282243730346e+04 
1.103282243730346e+04 
1.114198922271378e+04 
1.114198922271378e+04 
1.125156268823250e+04 
    </DataArray>
    <DataArray type="Float64" Name="phiAnalytic_1" format="ascii">
9.172209925722114e+03 
9.174714595851108e+03 
9.174714595851108e+03 
9.182222572297344e+03 
9.182222572297344e+03 
9.194715767774223e+03 
9.194715767774223e+03 
9.212164085221300e+03 
9.212164085221300e+03 
9.234525490307671e+03 
9.234525490307671e+03 
9.261746112692139e+03 
9.261746112692139e+03 
9.293760375796361e+03 
9.293760375796361e+03 
9.330491154778374e+03 
9.330491154778374e+03 
9.371849962326152e+03 
9.371849962326152e+03 
9.417737161823643e+03 
9.417737161823643e+03 
9.468042207376036e+03 
9.468042207376036e+03 
9.522643910116101e+03 
9.522643910116101e+03 
9.581410730150241e+03 
9.581410730150241e+03 
9.644201093441181e+03 
9.644201093441181e+03 
9.710863732864005e+03 
9.710863732864005e+03 
9.781238052614104e+03 
9.781238052614104e+03 
9.855154515089340e+03 
9.855154515089340e+03 
9.932435049314521e+03 
9.932435049314521e+03 
1.001289347992442e+04 
1.001289347992442e+04 
1.009633597567196e+04 
1.009633597567196e+04 
1.018256151638123e+04 
1.018256151638123e+04 
1.027136237722039e+04 
1.027136237722039e+04 
1.036252462912798e+04 
1.036252462912798e+04 
1.045582865418697e+04 
1.045582865418697e+04 
1.055104967470498e+04 
1.055104967470498e+04 
1.064795829472614e+04 
1.064795829472614e+04 
1.074632105266986e+04 
1.074632105266986e+04 
1.084590098376516e+04 
1.084590098376516e+04 
1.094645819092536e+04 
1.094645819092536e+04 
1.104775042268802e+04 
1.104775042268802e+04 
1.114953365682721e+04 
1.114953365682721e+04 
1.125156268823250e+04 
    </DataArray>
    <DataArray type="Float64" Name="phi_2" format="ascii">
-1.755477302974151e+05 
-1.755469921332861e+05 
-1.755469921332861e+05 
-1.755447807341901e+05 
-1.755447807341901e+05 
-1.755411053521147e+05 
-1.755411053521147e+05 
-1.755359813146165e+05 
-1.755359813146165e+05 
-1.755294298880172e+05 
-1.755294298880172e+05 
-1.755214780894791e+05 
-1.755214780894791e+05 
-1.755121584514223e+05 
-1.755121584514223e+05 
-1.755015087425422e+05 
-1.755015087425422e+05 
-1.754895716503583e+05 
-1.754895716503583e+05 
-1.754763944307433e+05 
-1.754763944307433e+05 
-1.754620285302505e+05 
-1.754620285302505e+05 
-1.754465291872637e+05 
-1.754465291872637e+05 
-1.754299550180492e+05 
-1.754299550180492e+05 
-1.754123675936917e+05 
-1.754123675936917e+05 
-1.753938310136750e+05 
-1.753938310136750e+05 
-1.753744114815223e+05 
-1.753744114815223e+05 
-1.753541768874776e+05 
-1.753541768874776e+05 
-1.753331964026976e+05 
-1.753331964026976e+05 
-1.753115400888623e+05 
-1.753115400888623e+05 
-1.752892785265178e+05 
-1.752892785265178e+05 
-1.752664824648616e+05 
-1.752664824648616e+05 
-1.752432224950812e+05 
-1.752432224950812e+05 
-1.752195687487786e+05 
-1.752195687487786e+05 
-1.751955906224794e+05 
-1.751955906224794e+05 
-1.751713565286891e+05 
-1.751713565286891e+05 
-1.751469336736494e+05 
-1.751469336736494e+05 
-1.751223878610242e+05 
-1.751223878610242e+05 
-1.750977833223865e+05 
-1.750977833223865e+05 
-1.750731825677113e+05 
-1.750731825677113e+05 
-1.750486462763113e+05 
-1.750486462763113e+05 
-1.750242331466352e+05 
-1.750242331466352e+05 
-1.750000000000000e+05 
    </DataArray>
    <DataArray type="Float64" Name="phiAnalytic_2" format="ascii">
-1.755064940632572e+05 
-1.755058172605389e+05 
-1.755058172605389e+05 
-1.755037895893338e+05 
-1.755037895893338e+05 
-1.755004192372364e+05 
-1.755004192372364e+05 
-1.754957197731392e+05 
-1.754957197731392e+05 
-1.754897100330224e+05 
-1.754897100330224e+05 
-1.754824139628909e+05 
-1.754824139628909e+05 
-1.754738604215853e+05 
-1.754738604215853e+05 
-1.754640829468345e+05 
-1.754640829468345e+05 
-1.754531194884542e+05 
-1.754531194884542e+05 
-1.754410121130295e+05 
-1.754410121130295e+05 
-1.754278066847319e+05 
-1.754278066847319e+05 
-1.754135525271130e+05 
-1.754135525271130e+05 
-1.753983020707910e+05 
-1.753983020707910e+05 
-1.753821104919058e+05 
-1.753821104919058e+05 
-1.753650353460719e+05 
-1.753650353460719e+05 
-1.753471362023227e+05 
-1.753471362023227e+05 
-1.753284742812211e+05 
-1.753284742812211e+05 
-1.753091121009357e+05 
-1.753091121009357e+05 
-1.752891131346522e+05 
-1.752891131346522e+05 
-1.752685414822376e+05 
-1.752685414822376e+05 
-1.752474615585983e+05 
-1.752474615585983e+05 
-1.752259378007018e+05 
-1.752259378007018e+05 
-1.752040343947679e+05 
-1.752040343947679e+05 
-1.751818150246892e+05 
-1.751818150246892e+05 
-1.751593426423302e+05 
-1.751593426423302e+05 
-1.751366792599725e+05 
-1.751366792599725e+05 
-1.751138857648357e+05 
-1.751138857648357e+05 
-1.750910217553042e+05 
-1.750910217553042e+05 
-1.750681453982393e+05 
-1.750681453982393e+05 
-1.750453133065411e+05 
-1.750453133065411e+05 
-1.750225804359566e+05 
-1.750225804359566e+05 
-1.750000000000000e+05 
    </DataArray>
  </PointData>
  <CellData>
    <DataArray type="Float64" Name="Owner" format="ascii">
0.000000000000000e+00 
0.000000000000000e+00 
0.000000000000000e+00 
0.000000000000000e+00 
0.000000000000000e+00 
0.000000000000000e+00 
0.000000000000000e+00 
0.000000000000000e+00 
0.000000000000000e+00 
0.000000000000000e+00 
0.000000000000000e+00 
0.000000000000000e+00 
0.000000000000000e+00 
0.000000000000000e+00 
0.000000000000000e+00 
0.000000000000000e+00 
0.000000000000000e+00 
0.000000000000000e+00 
0.000000000000000e+00 
0.000000000000000e+00 
0.000000000000000e+00 
0.000000000000000e+00 
0.000000000000000e+00 
0.000000000000000e+00 
0.000000000000000e+00 
0.000000000000000e+00 
0.000000000000000e+00 
0.000000000000000e+00 
0.000000000000000e+00 
0.000000000000000e+00 
0.000000000000000e+00 
0.000000000000000e+00 
0.000000000000000e+00 
0.000000000000000e+00 
0.000000000000000e+00 
0.000000000000000e+00 
0.000000000000000e+00 
0.000000000000000e+00 
0.000000000000000e+00 
0.000000000000000e+00 
0.000000000000000e+00 
0.000000000000000e+00 
0.000000000000000e+00 
0.000000000000000e+00 
0.000000000000000e+00 
0.000000000000000e+00 
0.000000000000000e+00 
0.000000000000000e+00 
0.000000000000000e+00 
0.000000000000000e+00 
0.000000000000000e+00 
0.000000000000000e+00 
0.000000000000000e+00 
0.000000000000000e+00 
0.000000000000000e+00 
0.000000000000000e+00 
0.000000000000000e+00 
0.000000000000000e+00 
0.000000000000000e+00 
0.000000000000000e+00 
0.000000000000000e+00 
0.000000000000000e+00 
0.000000000000000e+00 
0.000000000000000e+00 
    </DataArray>
  </CellData>
</Piece>
</UnstructuredGrid>
</VTKFile>
