<?xml version="1.0" ?> 
<!-- 
# vtk DataFile Version 3.0
-->
<VTKFile type="UnstructuredGrid" version="0.1" compressor="vtkZLibDataCompressor" byte_order="LittleEndian">
<UnstructuredGrid>
<FieldData>
<DataArray type="Float32" Name="TIME" NumberOfTuples="1" format="ascii">372.023809525</DataArray>
</FieldData>
<Piece NumberOfPoints="64" NumberOfCells="32" >
  <Points>
    <DataArray type="Float64" NumberOfComponents="3" format="ascii">
0.000000000000000e+00 0.000000000000000e+00 0.000000000000000e+00 
3.125000000000000e-05 0.000000000000000e+00 0.000000000000000e+00 
3.125000000000000e-05 0.000000000000000e+00 0.000000000000000e+00 
6.250000000000000e-05 0.000000000000000e+00 0.000000000000000e+00 
6.250000000000000e-05 0.000000000000000e+00 0.000000000000000e+00 
9.375000000000000e-05 0.000000000000000e+00 0.000000000000000e+00 
9.375000000000000e-05 0.000000000000000e+00 0.000000000000000e+00 
1.250000000000000e-04 0.000000000000000e+00 0.000000000000000e+00 
1.250000000000000e-04 0.000000000000000e+00 0.000000000000000e+00 
1.562500000000000e-04 0.000000000000000e+00 0.000000000000000e+00 
1.562500000000000e-04 0.000000000000000e+00 0.000000000000000e+00 
1.875000000000000e-04 0.000000000000000e+00 0.000000000000000e+00 
1.875000000000000e-04 0.000000000000000e+00 0.000000000000000e+00 
2.187500000000000e-04 0.000000000000000e+00 0.000000000000000e+00 
2.187500000000000e-04 0.000000000000000e+00 0.000000000000000e+00 
2.500000000000000e-04 0.000000000000000e+00 0.000000000000000e+00 
2.500000000000000e-04 0.000000000000000e+00 0.000000000000000e+00 
2.812500000000000e-04 0.000000000000000e+00 0.000000000000000e+00 
2.812500000000000e-04 0.000000000000000e+00 0.000000000000000e+00 
3.125000000000000e-04 0.000000000000000e+00 0.000000000000000e+00 
3.125000000000000e-04 0.000000000000000e+00 0.000000000000000e+00 
3.437500000000000e-04 0.000000000000000e+00 0.000000000000000e+00 
3.437500000000000e-04 0.000000000000000e+00 0.000000000000000e+00 
3.750000000000000e-04 0.000000000000000e+00 0.000000000000000e+00 
3.750000000000000e-04 0.000000000000000e+00 0.000000000000000e+00 
4.062500000000000e-04 0.000000000000000e+00 0.000000000000000e+00 
4.062500000000000e-04 0.000000000000000e+00 0.000000000000000e+00 
4.375000000000000e-04 0.000000000000000e+00 0.000000000000000e+00 
4.375000000000000e-04 0.000000000000000e+00 0.000000000000000e+00 
4.687500000000000e-04 0.000000000000000e+00 0.000000000000000e+00 
4.687500000000000e-04 0.000000000000000e+00 0.000000000000000e+00 
5.000000000000000e-04 0.000000000000000e+00 0.000000000000000e+00 
5.000000000000000e-04 0.000000000000000e+00 0.000000000000000e+00 
5.312500000000000e-04 0.000000000000000e+00 0.000000000000000e+00 
5.312500000000000e-04 0.000000000000000e+00 0.000000000000000e+00 
5.625000000000001e-04 0.000000000000000e+00 0.000000000000000e+00 
5.625000000000001e-04 0.000000000000000e+00 0.000000000000000e+00 
5.937500000000000e-04 0.000000000000000e+00 0.000000000000000e+00 
5.937500000000000e-04 0.000000000000000e+00 0.000000000000000e+00 
6.250000000000000e-04 0.000000000000000e+00 0.000000000000000e+00 
6.250000000000000e-04 0.000000000000000e+00 0.000000000000000e+00 
6.562500000000000e-04 0.000000000000000e+00 0.000000000000000e+00 
6.562500000000000e-04 0.000000000000000e+00 0.000000000000000e+00 
6.875000000000000e-04 0.000000000000000e+00 0.000000000000000e+00 
6.875000000000000e-04 0.000000000000000e+00 0.000000000000000e+00 
7.187500000000000e-04 0.000000000000000e+00 0.000000000000000e+00 
7.187500000000000e-04 0.000000000000000e+00 0.000000000000000e+00 
7.500000000000000e-04 0.000000000000000e+00 0.000000000000000e+00 
7.500000000000000e-04 0.000000000000000e+00 0.000000000000000e+00 
7.812500000000000e-04 0.000000000000000e+00 0.000000000000000e+00 
7.812500000000000e-04 0.000000000000000e+00 0.000000000000000e+00 
8.125000000000001e-04 0.000000000000000e+00 0.000000000000000e+00 
8.125000000000001e-04 0.000000000000000e+00 0.000000000000000e+00 
8.437500000000000e-04 0.000000000000000e+00 0.000000000000000e+00 
8.437500000000000e-04 0.000000000000000e+00 0.000000000000000e+00 
8.750000000000000e-04 0.000000000000000e+00 0.000000000000000e+00 
8.750000000000000e-04 0.000000000000000e+00 0.000000000000000e+00 
9.062500000000000e-04 0.000000000000000e+00 0.000000000000000e+00 
9.062500000000000e-04 0.000000000000000e+00 0.000000000000000e+00 
9.375000000000000e-04 0.000000000000000e+00 0.000000000000000e+00 
9.375000000000000e-04 0.000000000000000e+00 0.000000000000000e+00 
9.687500000000000e-04 0.000000000000000e+00 0.000000000000000e+00 
9.687500000000000e-04 0.000000000000000e+00 0.000000000000000e+00 
1.000000000000000e-03 0.000000000000000e+00 0.000000000000000e+00 
    </DataArray>
  </Points>

  <Cells>
    <DataArray type="Int32" Name="connectivity" format="ascii">
0 1 2 3 4 5 6 7 8 9 10 11 12 13 14 15 16 17 18 19 20 21 22 23 24 25 26 27 28 29 30 31 32 33 34 35 36 37 38 39 40 41 42 43 44 45 46 47 48 49 50 51 52 53 54 55 56 57 58 59 60 61 62 63     </DataArray>
    <DataArray type="Int32" Name="offsets" format="ascii">
2 4 6 8 10 12 14 16 18 20 22 24 26 28 30 32 34 36 38 40 42 44 46 48 50 52 54 56 58 60 62 64     </DataArray>
    <DataArray type="UInt8" Name="types" format="ascii">
3 3 3 3 3 3 3 3 3 3 3 3 3 3 3 3 3 3 3 3 3 3 3 3 3 3 3 3 3 3 3 3     </DataArray>
  </Cells>

  <PointData>
    <DataArray type="Float64" Name="phi_1" format="ascii">
4.478234010419172e+03 
4.486154104686021e+03 
4.486154104686021e+03 
4.509900428898851e+03 
4.509900428898851e+03 
4.549431028971885e+03 
4.549431028971885e+03 
4.604675723399971e+03 
4.604675723399971e+03 
4.675535726722676e+03 
4.675535726722676e+03 
4.761883142791225e+03 
4.761883142791225e+03 
4.863560346977837e+03 
4.863560346977837e+03 
4.980379280344429e+03 
4.980379280344429e+03 
5.112120681823804e+03 
5.112120681823804e+03 
5.258533286724591e+03 
5.258533286724591e+03 
5.419333021474666e+03 
5.419333021474666e+03 
5.594202225569629e+03 
5.594202225569629e+03 
5.782788932278301e+03 
5.782788932278301e+03 
5.984706239809257e+03 
5.984706239809257e+03 
6.199531804354161e+03 
6.199531804354161e+03 
6.426807485658676e+03 
6.426807485658676e+03 
6.666039174461683e+03 
6.666039174461683e+03 
6.916696829296287e+03 
6.916696829296287e+03 
7.178214747486336e+03 
7.178214747486336e+03 
7.449992092612982e+03 
7.449992092612982e+03 
7.731393694677871e+03 
7.731393694677871e+03 
8.021751143488600e+03 
8.021751143488600e+03 
8.320364157934557e+03 
8.320364157934557e+03 
8.626502333895680e+03 
8.626502333895680e+03 
8.939406891184048e+03 
8.939406891184048e+03 
9.258293846182383e+03 
9.258293846182383e+03 
9.582353144647999e+03 
9.582353144647999e+03 
9.910764446224646e+03 
9.910764446224646e+03 
1.024265087916011e+04 
1.024265087916011e+04 
1.057726935277181e+04 
1.057726935277181e+04 
1.091330412521583e+04 
1.091330412521583e+04 
1.125156268823250e+04 
    </DataArray>
    <DataArray type="Float64" Name="phiAnalytic_1" format="ascii">
4.645732367714663e+03 
4.653644989464830e+03 
4.653644989464830e+03 
4.677364753416262e+03 
4.677364753416262e+03 
4.716837378479599e+03 
4.716837378479599e+03 
4.771972472593957e+03 
4.771972472593957e+03 
4.842643648731719e+03 
4.842643648731719e+03 
4.928688690012376e+03 
4.928688690012376e+03 
5.029909766544203e+03 
5.029909766544203e+03 
5.146073707236494e+03 
5.146073707236494e+03 
5.276912330360056e+03 
5.276912330360056e+03 
5.422122837063293e+03 
5.422122837063293e+03 
5.581368272362563e+03 
5.581368272362563e+03 
5.754278058307703e+03 
5.754278058307703e+03 
5.940448604068555e+03 
5.940448604068555e+03 
6.139443997591462e+03 
6.139443997591462e+03 
6.350796783234126e+03 
6.350796783234126e+03 
6.574008829404534e+03 
6.574008829404534e+03 
6.808552289709603e+03 
6.808552289709603e+03 
7.053870660469570e+03 
7.053870660469570e+03 
7.309379936685605e+03 
7.309379936685605e+03 
7.574469867674319e+03 
7.574469867674319e+03 
7.848505312619433e+03 
7.848505312619433e+03 
8.130827695256022e+03 
8.130827695256022e+03 
8.420756555815984e+03 
8.420756555815984e+03 
8.717591197245805e+03 
8.717591197245805e+03 
9.020612421581060e+03 
9.020612421581060e+03 
9.329084351248533e+03 
9.329084351248533e+03 
9.642256328988602e+03 
9.642256328988602e+03 
9.959364889068947e+03 
9.959364889068947e+03 
1.027963579151630e+04 
1.027963579151630e+04 
1.060228611024491e+04 
1.060228611024491e+04 
1.092652636522557e+04 
1.092652636522557e+04 
1.125156268823250e+04 
    </DataArray>
    <DataArray type="Float64" Name="phi_2" format="ascii">
-1.772836823370219e+05 
-1.772792996520931e+05 
-1.772792996520931e+05 
-1.772662056436299e+05 
-1.772662056436299e+05 
-1.772445604668069e+05 
-1.772445604668069e+05 
-1.772146245873174e+05 
-1.772146245873174e+05 
-1.771767496076520e+05 
-1.771767496076520e+05 
-1.771313663871619e+05 
-1.771313663871619e+05 
-1.770789712736307e+05 
-1.770789712736307e+05 
-1.770201113204422e+05 
-1.770201113204422e+05 
-1.769553693318692e+05 
-1.769553693318692e+05 
-1.768853494759442e+05 
-1.768853494759442e+05 
-1.768106640534296e+05 
-1.768106640534296e+05 
-1.767319218381113e+05 
-1.767319218381113e+05 
-1.766497182308628e+05 
-1.766497182308628e+05 
-1.765646273150250e+05 
-1.765646273150250e+05 
-1.764771957743673e+05 
-1.764771957743673e+05 
-1.763879385416856e+05 
-1.763879385416856e+05 
-1.762973359854484e+05 
-1.762973359854484e+05 
-1.762058324099212e+05 
-1.762058324099212e+05 
-1.761138356352673e+05 
-1.761138356352673e+05 
-1.760217174320941e+05 
-1.760217174320941e+05 
-1.759298146040596e+05 
-1.759298146040596e+05 
-1.758384305376699e+05 
-1.758384305376699e+05 
-1.757478370663462e+05 
-1.757478370663462e+05 
-1.756582765241989e+05 
-1.756582765241989e+05 
-1.755699638895192e+05 
-1.755699638895192e+05 
-1.754830889466494e+05 
-1.754830889466494e+05 
-1.753978183950975e+05 
-1.753978183950975e+05 
-1.753142979222217e+05 
-1.753142979222217e+05 
-1.752326540138764e+05 
-1.752326540138764e+05 
-1.751529962047293e+05 
-1.751529962047293e+05 
-1.750754171900272e+05 
-1.750754171900272e+05 
-1.750000000000000e+05 
    </DataArray>
    <DataArray type="Float64" Name="phiAnalytic_2" format="ascii">
-1.771926592575711e+05 
-1.771884409186640e+05 
-1.771884409186640e+05 
-1.771758383960649e+05 
-1.771758383960649e+05 
-1.771550072341646e+05 
-1.771550072341646e+05 
-1.771262003627768e+05 
-1.771262003627768e+05 
-1.770897591332927e+05 
-1.770897591332927e+05 
-1.770461017081392e+05 
-1.770461017081392e+05 
-1.769957096012615e+05 
-1.769957096012615e+05 
-1.769391132232208e+05 
-1.769391132232208e+05 
-1.768768772548228e+05 
-1.768768772548228e+05 
-1.768095865737121e+05 
-1.768095865737121e+05 
-1.767378333119241e+05 
-1.767378333119241e+05 
-1.766622054536948e+05 
-1.766622054536948e+05 
-1.765832772141490e+05 
-1.765832772141490e+05 
-1.765016012877984e+05 
-1.765016012877984e+05 
-1.764177029316647e+05 
-1.764177029316647e+05 
-1.763320757558056e+05 
-1.763320757558056e+05 
-1.762451790337010e+05 
-1.762451790337010e+05 
-1.761574363126874e+05 
-1.761574363126874e+05 
-1.760692350950036e+05 
-1.760692350950036e+05 
-1.759809273670859e+05 
-1.759809273670859e+05 
-1.758928307729614e+05 
-1.758928307729614e+05 
-1.758052302521743e+05 
-1.758052302521743e+05 
-1.757183799899695e+05 
-1.757183799899695e+05 
-1.756325055547645e+05 
-1.756325055547645e+05 
-1.755478061235377e+05 
-1.755478061235377e+05 
-1.754644567186243e+05 
-1.754644567186243e+05 
-1.753826103990874e+05 
-1.753826103990874e+05 
-1.753024003662377e+05 
-1.753024003662377e+05 
-1.752239419561868e+05 
-1.752239419561868e+05 
-1.751473345028390e+05 
-1.751473345028390e+05 
-1.750726630628307e+05 
-1.750726630628307e+05 
-1.750000000000000e+05 
    </DataArray>
  </PointData>
  <CellData>
    <DataArray type="Float64" Name="Owner" format="ascii">
0.000000000000000e+00 
0.000000000000000e+00 
0.000000000000000e+00 
0.000000000000000e+00 
0.000000000000000e+00 
0.000000000000000e+00 
0.000000000000000e+00 
0.000000000000000e+00 
0.000000000000000e+00 
0.000000000000000e+00 
0.000000000000000e+00 
0.000000000000000e+00 
0.000000000000000e+00 
0.000000000000000e+00 
0.000000000000000e+00 
0.000000000000000e+00 
0.000000000000000e+00 
0.000000000000000e+00 
0.000000000000000e+00 
0.000000000000000e+00 
0.000000000000000e+00 
0.000000000000000e+00 
0.000000000000000e+00 
0.000000000000000e+00 
0.000000000000000e+00 
0.000000000000000e+00 
0.000000000000000e+00 
0.000000000000000e+00 
0.000000000000000e+00 
0.000000000000000e+00 
0.000000000000000e+00 
0.000000000000000e+00 
0.000000000000000e+00 
0.000000000000000e+00 
0.000000000000000e+00 
0.000000000000000e+00 
0.000000000000000e+00 
0.000000000000000e+00 
0.000000000000000e+00 
0.000000000000000e+00 
0.000000000000000e+00 
0.000000000000000e+00 
0.000000000000000e+00 
0.000000000000000e+00 
0.000000000000000e+00 
0.000000000000000e+00 
0.000000000000000e+00 
0.000000000000000e+00 
0.000000000000000e+00 
0.000000000000000e+00 
0.000000000000000e+00 
0.000000000000000e+00 
0.000000000000000e+00 
0.000000000000000e+00 
0.000000000000000e+00 
0.000000000000000e+00 
0.000000000000000e+00 
0.000000000000000e+00 
0.000000000000000e+00 
0.000000000000000e+00 
0.000000000000000e+00 
0.000000000000000e+00 
0.000000000000000e+00 
0.000000000000000e+00 
    </DataArray>
  </CellData>
</Piece>
</UnstructuredGrid>
</VTKFile>
