<?xml version="1.0" ?> 
<!-- 
# vtk DataFile Version 3.0
-->
<VTKFile type="UnstructuredGrid" version="0.1" compressor="vtkZLibDataCompressor" byte_order="LittleEndian">
<UnstructuredGrid>
<FieldData>
<DataArray type="Float32" Name="TIME" NumberOfTuples="1" format="ascii">483.6309523825</DataArray>
</FieldData>
<Piece NumberOfPoints="64" NumberOfCells="32" >
  <Points>
    <DataArray type="Float64" NumberOfComponents="3" format="ascii">
0.000000000000000e+00 0.000000000000000e+00 0.000000000000000e+00 
3.125000000000000e-05 0.000000000000000e+00 0.000000000000000e+00 
3.125000000000000e-05 0.000000000000000e+00 0.000000000000000e+00 
6.250000000000000e-05 0.000000000000000e+00 0.000000000000000e+00 
6.250000000000000e-05 0.000000000000000e+00 0.000000000000000e+00 
9.375000000000000e-05 0.000000000000000e+00 0.000000000000000e+00 
9.375000000000000e-05 0.000000000000000e+00 0.000000000000000e+00 
1.250000000000000e-04 0.000000000000000e+00 0.000000000000000e+00 
1.250000000000000e-04 0.000000000000000e+00 0.000000000000000e+00 
1.562500000000000e-04 0.000000000000000e+00 0.000000000000000e+00 
1.562500000000000e-04 0.000000000000000e+00 0.000000000000000e+00 
1.875000000000000e-04 0.000000000000000e+00 0.000000000000000e+00 
1.875000000000000e-04 0.000000000000000e+00 0.000000000000000e+00 
2.187500000000000e-04 0.000000000000000e+00 0.000000000000000e+00 
2.187500000000000e-04 0.000000000000000e+00 0.000000000000000e+00 
2.500000000000000e-04 0.000000000000000e+00 0.000000000000000e+00 
2.500000000000000e-04 0.000000000000000e+00 0.000000000000000e+00 
2.812500000000000e-04 0.000000000000000e+00 0.000000000000000e+00 
2.812500000000000e-04 0.000000000000000e+00 0.000000000000000e+00 
3.125000000000000e-04 0.000000000000000e+00 0.000000000000000e+00 
3.125000000000000e-04 0.000000000000000e+00 0.000000000000000e+00 
3.437500000000000e-04 0.000000000000000e+00 0.000000000000000e+00 
3.437500000000000e-04 0.000000000000000e+00 0.000000000000000e+00 
3.750000000000000e-04 0.000000000000000e+00 0.000000000000000e+00 
3.750000000000000e-04 0.000000000000000e+00 0.000000000000000e+00 
4.062500000000000e-04 0.000000000000000e+00 0.000000000000000e+00 
4.062500000000000e-04 0.000000000000000e+00 0.000000000000000e+00 
4.375000000000000e-04 0.000000000000000e+00 0.000000000000000e+00 
4.375000000000000e-04 0.000000000000000e+00 0.000000000000000e+00 
4.687500000000000e-04 0.000000000000000e+00 0.000000000000000e+00 
4.687500000000000e-04 0.000000000000000e+00 0.000000000000000e+00 
5.000000000000000e-04 0.000000000000000e+00 0.000000000000000e+00 
5.000000000000000e-04 0.000000000000000e+00 0.000000000000000e+00 
5.312500000000000e-04 0.000000000000000e+00 0.000000000000000e+00 
5.312500000000000e-04 0.000000000000000e+00 0.000000000000000e+00 
5.625000000000001e-04 0.000000000000000e+00 0.000000000000000e+00 
5.625000000000001e-04 0.000000000000000e+00 0.000000000000000e+00 
5.937500000000000e-04 0.000000000000000e+00 0.000000000000000e+00 
5.937500000000000e-04 0.000000000000000e+00 0.000000000000000e+00 
6.250000000000000e-04 0.000000000000000e+00 0.000000000000000e+00 
6.250000000000000e-04 0.000000000000000e+00 0.000000000000000e+00 
6.562500000000000e-04 0.000000000000000e+00 0.000000000000000e+00 
6.562500000000000e-04 0.000000000000000e+00 0.000000000000000e+00 
6.875000000000000e-04 0.000000000000000e+00 0.000000000000000e+00 
6.875000000000000e-04 0.000000000000000e+00 0.000000000000000e+00 
7.187500000000000e-04 0.000000000000000e+00 0.000000000000000e+00 
7.187500000000000e-04 0.000000000000000e+00 0.000000000000000e+00 
7.500000000000000e-04 0.000000000000000e+00 0.000000000000000e+00 
7.500000000000000e-04 0.000000000000000e+00 0.000000000000000e+00 
7.812500000000000e-04 0.000000000000000e+00 0.000000000000000e+00 
7.812500000000000e-04 0.000000000000000e+00 0.000000000000000e+00 
8.125000000000001e-04 0.000000000000000e+00 0.000000000000000e+00 
8.125000000000001e-04 0.000000000000000e+00 0.000000000000000e+00 
8.437500000000000e-04 0.000000000000000e+00 0.000000000000000e+00 
8.437500000000000e-04 0.000000000000000e+00 0.000000000000000e+00 
8.750000000000000e-04 0.000000000000000e+00 0.000000000000000e+00 
8.750000000000000e-04 0.000000000000000e+00 0.000000000000000e+00 
9.062500000000000e-04 0.000000000000000e+00 0.000000000000000e+00 
9.062500000000000e-04 0.000000000000000e+00 0.000000000000000e+00 
9.375000000000000e-04 0.000000000000000e+00 0.000000000000000e+00 
9.375000000000000e-04 0.000000000000000e+00 0.000000000000000e+00 
9.687500000000000e-04 0.000000000000000e+00 0.000000000000000e+00 
9.687500000000000e-04 0.000000000000000e+00 0.000000000000000e+00 
1.000000000000000e-03 0.000000000000000e+00 0.000000000000000e+00 
    </DataArray>
  </Points>

  <Cells>
    <DataArray type="Int32" Name="connectivity" format="ascii">
0 1 2 3 4 5 6 7 8 9 10 11 12 13 14 15 16 17 18 19 20 21 22 23 24 25 26 27 28 29 30 31 32 33 34 35 36 37 38 39 40 41 42 43 44 45 46 47 48 49 50 51 52 53 54 55 56 57 58 59 60 61 62 63     </DataArray>
    <DataArray type="Int32" Name="offsets" format="ascii">
2 4 6 8 10 12 14 16 18 20 22 24 26 28 30 32 34 36 38 40 42 44 46 48 50 52 54 56 58 60 62 64     </DataArray>
    <DataArray type="UInt8" Name="types" format="ascii">
3 3 3 3 3 3 3 3 3 3 3 3 3 3 3 3 3 3 3 3 3 3 3 3 3 3 3 3 3 3 3 3     </DataArray>
  </Cells>

  <PointData>
    <DataArray type="Float64" Name="phi_1" format="ascii">
5.816802513559290e+03 
5.823297365779329e+03 
5.823297365779329e+03 
5.842767383562970e+03 
5.842767383562970e+03 
5.875168960406291e+03 
5.875168960406291e+03 
5.920429453181163e+03 
5.920429453181163e+03 
5.978447235861166e+03 
5.978447235861166e+03 
6.049091778950368e+03 
6.049091778950368e+03 
6.132203758588305e+03 
6.132203758588305e+03 
6.227595200129631e+03 
6.227595200129631e+03 
6.335049661630754e+03 
6.335049661630754e+03 
6.454322463106836e+03 
6.454322463106836e+03 
6.585140967670237e+03 
6.585140967670237e+03 
6.727204920723017e+03 
6.727204920723017e+03 
6.880186853278666e+03 
6.880186853278666e+03 
7.043732555245671e+03 
7.043732555245671e+03 
7.217461624128944e+03 
7.217461624128944e+03 
7.400968094114145e+03 
7.400968094114145e+03 
7.593821149882548e+03 
7.593821149882548e+03 
7.795565928829350e+03 
7.795565928829350e+03 
8.005724414437326e+03 
8.005724414437326e+03 
8.223796423065189e+03 
8.223796423065189e+03 
8.449260683909393e+03 
8.449260683909393e+03 
8.681576016601934e+03 
8.681576016601934e+03 
8.920182588020814e+03 
8.920182588020814e+03 
9.164503311156153e+03 
9.164503311156153e+03 
9.413945135919221e+03 
9.413945135919221e+03 
9.667901160215875e+03 
9.667901160215875e+03 
9.925750026049769e+03 
9.925750026049769e+03 
1.018686594402719e+04 
1.018686594402719e+04 
1.045058884762126e+04 
1.045058884762126e+04 
1.071634559241633e+04 
1.071634559241633e+04 
1.098320037928622e+04 
1.098320037928622e+04 
1.125156268823250e+04 
    </DataArray>
    <DataArray type="Float64" Name="phiAnalytic_1" format="ascii">
6.006839645138167e+03 
6.013151608378144e+03 
6.013151608378144e+03 
6.032072411849502e+03 
6.032072411849502e+03 
6.063556830556762e+03 
6.063556830556762e+03 
6.107529601983228e+03 
6.107529601983228e+03 
6.163885594715403e+03 
6.163885594715403e+03 
6.232490044334622e+03 
6.232490044334622e+03 
6.313178856383858e+03 
6.313178856383858e+03 
6.405758976149308e+03 
6.405758976149308e+03 
6.510008824918835e+03 
6.510008824918835e+03 
6.625678802290186e+03 
6.625678802290186e+03 
6.752491854000713e+03 
6.752491854000713e+03 
6.890144104635333e+03 
6.890144104635333e+03 
7.038305554440522e+03 
7.038305554440522e+03 
7.196620839328664e+03 
7.196620839328664e+03 
7.364710052999339e+03 
7.364710052999339e+03 
7.542169629932643e+03 
7.542169629932643e+03 
7.728573287825031e+03 
7.728573287825031e+03 
7.923473027842184e+03 
7.923473027842184e+03 
8.126400190857102e+03 
8.126400190857102e+03 
8.336866567627403e+03 
8.336866567627403e+03 
8.554365560645670e+03 
8.554365560645670e+03 
8.778373395173103e+03 
8.778373395173103e+03 
9.008350376742645e+03 
9.008350376742645e+03 
9.243742192195479e+03 
9.243742192195479e+03 
9.483981251097932e+03 
9.483981251097932e+03 
9.728488064176685e+03 
9.728488064176685e+03 
9.976672655212084e+03 
9.976672655212084e+03 
1.022793600264503e+04 
1.022793600264503e+04 
1.048167150698499e+04 
1.048167150698499e+04 
1.073726647995775e+04 
1.073726647995775e+04 
1.099410365120365e+04 
1.099410365120365e+04 
1.125156268823250e+04 
    </DataArray>
    <DataArray type="Float64" Name="phi_2" format="ascii">
-1.766354166285318e+05 
-1.766326493753257e+05 
-1.766326493753257e+05 
-1.766243722940633e+05 
-1.766243722940633e+05 
-1.766106587997649e+05 
-1.766106587997649e+05 
-1.765916292166707e+05 
-1.765916292166707e+05 
-1.765674478385657e+05 
-1.765674478385657e+05 
-1.765383190261092e+05 
-1.765383190261092e+05 
-1.765044825317150e+05 
-1.765044825317150e+05 
-1.764662082683729e+05 
-1.764662082683729e+05 
-1.764237907482887e+05 
-1.764237907482887e+05 
-1.763775434112663e+05 
-1.763775434112663e+05 
-1.763277930437062e+05 
-1.763277930437062e+05 
-1.762748744602540e+05 
-1.762748744602540e+05 
-1.762191255852180e+05 
-1.762191255852180e+05 
-1.761608830335151e+05 
-1.761608830335151e+05 
-1.761004782542512e+05 
-1.761004782542512e+05 
-1.760382342665498e+05 
-1.760382342665498e+05 
-1.759744629885421e+05 
-1.759744629885421e+05 
-1.759094631374028e+05 
-1.759094631374028e+05 
-1.758435186611554e+05 
-1.758435186611554e+05 
-1.757768976513850e+05 
-1.757768976513850e+05 
-1.757098516793365e+05 
-1.757098516793365e+05 
-1.756426154953346e+05 
-1.756426154953346e+05 
-1.755754070320705e+05 
-1.755754070320705e+05 
-1.755084276554968e+05 
-1.755084276554968e+05 
-1.754418626109785e+05 
-1.754418626109785e+05 
-1.753758816203709e+05 
-1.753758816203709e+05 
-1.753106395824925e+05 
-1.753106395824925e+05 
-1.752462773687327e+05 
-1.752462773687327e+05 
-1.751829225900052e+05 
-1.751829225900052e+05 
-1.751206906567071e+05 
-1.751206906567071e+05 
-1.750596848628926e+05 
-1.750596848628926e+05 
-1.750000000000000e+05 
    </DataArray>
    <DataArray type="Float64" Name="phiAnalytic_2" format="ascii">
-1.765557273515743e+05 
-1.765531239858736e+05 
-1.765531239858736e+05 
-1.765453364532334e+05 
-1.765453364532334e+05 
-1.765324318985153e+05 
-1.765324318985153e+05 
-1.765145204293034e+05 
-1.765145204293034e+05 
-1.764917525103544e+05 
-1.764917525103544e+05 
-1.764643154979228e+05 
-1.764643154979228e+05 
-1.764324294776558e+05 
-1.764324294776558e+05 
-1.763963425928402e+05 
-1.763963425928402e+05 
-1.763563260591900e+05 
-1.763563260591900e+05 
-1.763126690586979e+05 
-1.763126690586979e+05 
-1.762656736901488e+05 
-1.762656736901488e+05 
-1.762156501303426e+05 
-1.762156501303426e+05 
-1.761629121309315e+05 
-1.761629121309315e+05 
-1.761077729440520e+05 
-1.761077729440520e+05 
-1.760505417383164e+05 
-1.760505417383164e+05 
-1.759915205373621e+05 
-1.759915205373621e+05 
-1.759310016875352e+05 
-1.759310016875352e+05 
-1.758692658402829e+05 
-1.758692658402829e+05 
-1.758065804187362e+05 
-1.758065804187362e+05 
-1.757431985266596e+05 
-1.757431985266596e+05 
-1.756793582509469e+05 
-1.756793582509469e+05 
-1.756152823055385e+05 
-1.756152823055385e+05 
-1.755511779642783e+05 
-1.755511779642783e+05 
-1.754872372321122e+05 
-1.754872372321122e+05 
-1.754236372074816e+05 
-1.754236372074816e+05 
-1.753605405932110e+05 
-1.753605405932110e+05 
-1.752980963181562e+05 
-1.752980963181562e+05 
-1.752364402370074e+05 
-1.752364402370074e+05 
-1.751756958806508e+05 
-1.751756958806508e+05 
-1.751159752342110e+05 
-1.751159752342110e+05 
-1.750573795241961e+05 
-1.750573795241961e+05 
-1.750000000000000e+05 
    </DataArray>
  </PointData>
  <CellData>
    <DataArray type="Float64" Name="Owner" format="ascii">
0.000000000000000e+00 
0.000000000000000e+00 
0.000000000000000e+00 
0.000000000000000e+00 
0.000000000000000e+00 
0.000000000000000e+00 
0.000000000000000e+00 
0.000000000000000e+00 
0.000000000000000e+00 
0.000000000000000e+00 
0.000000000000000e+00 
0.000000000000000e+00 
0.000000000000000e+00 
0.000000000000000e+00 
0.000000000000000e+00 
0.000000000000000e+00 
0.000000000000000e+00 
0.000000000000000e+00 
0.000000000000000e+00 
0.000000000000000e+00 
0.000000000000000e+00 
0.000000000000000e+00 
0.000000000000000e+00 
0.000000000000000e+00 
0.000000000000000e+00 
0.000000000000000e+00 
0.000000000000000e+00 
0.000000000000000e+00 
0.000000000000000e+00 
0.000000000000000e+00 
0.000000000000000e+00 
0.000000000000000e+00 
0.000000000000000e+00 
0.000000000000000e+00 
0.000000000000000e+00 
0.000000000000000e+00 
0.000000000000000e+00 
0.000000000000000e+00 
0.000000000000000e+00 
0.000000000000000e+00 
0.000000000000000e+00 
0.000000000000000e+00 
0.000000000000000e+00 
0.000000000000000e+00 
0.000000000000000e+00 
0.000000000000000e+00 
0.000000000000000e+00 
0.000000000000000e+00 
0.000000000000000e+00 
0.000000000000000e+00 
0.000000000000000e+00 
0.000000000000000e+00 
0.000000000000000e+00 
0.000000000000000e+00 
0.000000000000000e+00 
0.000000000000000e+00 
0.000000000000000e+00 
0.000000000000000e+00 
0.000000000000000e+00 
0.000000000000000e+00 
0.000000000000000e+00 
0.000000000000000e+00 
0.000000000000000e+00 
0.000000000000000e+00 
    </DataArray>
  </CellData>
</Piece>
</UnstructuredGrid>
</VTKFile>
