<?xml version="1.0" ?> 
<!-- 
# vtk DataFile Version 3.0
-->
<VTKFile type="UnstructuredGrid" version="0.1" compressor="vtkZLibDataCompressor" byte_order="LittleEndian">
<UnstructuredGrid>
<FieldData>
<DataArray type="Float32" Name="TIME" NumberOfTuples="1" format="ascii">297.61904762</DataArray>
</FieldData>
<Piece NumberOfPoints="64" NumberOfCells="32" >
  <Points>
    <DataArray type="Float64" NumberOfComponents="3" format="ascii">
0.000000000000000e+00 0.000000000000000e+00 0.000000000000000e+00 
3.125000000000000e-05 0.000000000000000e+00 0.000000000000000e+00 
3.125000000000000e-05 0.000000000000000e+00 0.000000000000000e+00 
6.250000000000000e-05 0.000000000000000e+00 0.000000000000000e+00 
6.250000000000000e-05 0.000000000000000e+00 0.000000000000000e+00 
9.375000000000000e-05 0.000000000000000e+00 0.000000000000000e+00 
9.375000000000000e-05 0.000000000000000e+00 0.000000000000000e+00 
1.250000000000000e-04 0.000000000000000e+00 0.000000000000000e+00 
1.250000000000000e-04 0.000000000000000e+00 0.000000000000000e+00 
1.562500000000000e-04 0.000000000000000e+00 0.000000000000000e+00 
1.562500000000000e-04 0.000000000000000e+00 0.000000000000000e+00 
1.875000000000000e-04 0.000000000000000e+00 0.000000000000000e+00 
1.875000000000000e-04 0.000000000000000e+00 0.000000000000000e+00 
2.187500000000000e-04 0.000000000000000e+00 0.000000000000000e+00 
2.187500000000000e-04 0.000000000000000e+00 0.000000000000000e+00 
2.500000000000000e-04 0.000000000000000e+00 0.000000000000000e+00 
2.500000000000000e-04 0.000000000000000e+00 0.000000000000000e+00 
2.812500000000000e-04 0.000000000000000e+00 0.000000000000000e+00 
2.812500000000000e-04 0.000000000000000e+00 0.000000000000000e+00 
3.125000000000000e-04 0.000000000000000e+00 0.000000000000000e+00 
3.125000000000000e-04 0.000000000000000e+00 0.000000000000000e+00 
3.437500000000000e-04 0.000000000000000e+00 0.000000000000000e+00 
3.437500000000000e-04 0.000000000000000e+00 0.000000000000000e+00 
3.750000000000000e-04 0.000000000000000e+00 0.000000000000000e+00 
3.750000000000000e-04 0.000000000000000e+00 0.000000000000000e+00 
4.062500000000000e-04 0.000000000000000e+00 0.000000000000000e+00 
4.062500000000000e-04 0.000000000000000e+00 0.000000000000000e+00 
4.375000000000000e-04 0.000000000000000e+00 0.000000000000000e+00 
4.375000000000000e-04 0.000000000000000e+00 0.000000000000000e+00 
4.687500000000000e-04 0.000000000000000e+00 0.000000000000000e+00 
4.687500000000000e-04 0.000000000000000e+00 0.000000000000000e+00 
5.000000000000000e-04 0.000000000000000e+00 0.000000000000000e+00 
5.000000000000000e-04 0.000000000000000e+00 0.000000000000000e+00 
5.312500000000000e-04 0.000000000000000e+00 0.000000000000000e+00 
5.312500000000000e-04 0.000000000000000e+00 0.000000000000000e+00 
5.625000000000001e-04 0.000000000000000e+00 0.000000000000000e+00 
5.625000000000001e-04 0.000000000000000e+00 0.000000000000000e+00 
5.937500000000000e-04 0.000000000000000e+00 0.000000000000000e+00 
5.937500000000000e-04 0.000000000000000e+00 0.000000000000000e+00 
6.250000000000000e-04 0.000000000000000e+00 0.000000000000000e+00 
6.250000000000000e-04 0.000000000000000e+00 0.000000000000000e+00 
6.562500000000000e-04 0.000000000000000e+00 0.000000000000000e+00 
6.562500000000000e-04 0.000000000000000e+00 0.000000000000000e+00 
6.875000000000000e-04 0.000000000000000e+00 0.000000000000000e+00 
6.875000000000000e-04 0.000000000000000e+00 0.000000000000000e+00 
7.187500000000000e-04 0.000000000000000e+00 0.000000000000000e+00 
7.187500000000000e-04 0.000000000000000e+00 0.000000000000000e+00 
7.500000000000000e-04 0.000000000000000e+00 0.000000000000000e+00 
7.500000000000000e-04 0.000000000000000e+00 0.000000000000000e+00 
7.812500000000000e-04 0.000000000000000e+00 0.000000000000000e+00 
7.812500000000000e-04 0.000000000000000e+00 0.000000000000000e+00 
8.125000000000001e-04 0.000000000000000e+00 0.000000000000000e+00 
8.125000000000001e-04 0.000000000000000e+00 0.000000000000000e+00 
8.437500000000000e-04 0.000000000000000e+00 0.000000000000000e+00 
8.437500000000000e-04 0.000000000000000e+00 0.000000000000000e+00 
8.750000000000000e-04 0.000000000000000e+00 0.000000000000000e+00 
8.750000000000000e-04 0.000000000000000e+00 0.000000000000000e+00 
9.062500000000000e-04 0.000000000000000e+00 0.000000000000000e+00 
9.062500000000000e-04 0.000000000000000e+00 0.000000000000000e+00 
9.375000000000000e-04 0.000000000000000e+00 0.000000000000000e+00 
9.375000000000000e-04 0.000000000000000e+00 0.000000000000000e+00 
9.687500000000000e-04 0.000000000000000e+00 0.000000000000000e+00 
9.687500000000000e-04 0.000000000000000e+00 0.000000000000000e+00 
1.000000000000000e-03 0.000000000000000e+00 0.000000000000000e+00 
    </DataArray>
  </Points>

  <Cells>
    <DataArray type="Int32" Name="connectivity" format="ascii">
0 1 2 3 4 5 6 7 8 9 10 11 12 13 14 15 16 17 18 19 20 21 22 23 24 25 26 27 28 29 30 31 32 33 34 35 36 37 38 39 40 41 42 43 44 45 46 47 48 49 50 51 52 53 54 55 56 57 58 59 60 61 62 63     </DataArray>
    <DataArray type="Int32" Name="offsets" format="ascii">
2 4 6 8 10 12 14 16 18 20 22 24 26 28 30 32 34 36 38 40 42 44 46 48 50 52 54 56 58 60 62 64     </DataArray>
    <DataArray type="UInt8" Name="types" format="ascii">
3 3 3 3 3 3 3 3 3 3 3 3 3 3 3 3 3 3 3 3 3 3 3 3 3 3 3 3 3 3 3 3     </DataArray>
  </Cells>

  <PointData>
    <DataArray type="Float64" Name="phi_1" format="ascii">
3.434679670791100e+03 
3.443428664935458e+03 
3.443428664935458e+03 
3.469668540222451e+03 
3.469668540222451e+03 
3.513377706487161e+03 
3.513377706487161e+03 
3.574519291890983e+03 
3.574519291890983e+03 
3.653039836276758e+03 
3.653039836276758e+03 
3.748867511213376e+03 
3.748867511213376e+03 
3.861909911850542e+03 
3.861909911850542e+03 
3.992051473852644e+03 
3.992051473852644e+03 
4.139150574948781e+03 
4.139150574948781e+03 
4.303036385705555e+03 
4.303036385705555e+03 
4.483505538637449e+03 
4.483505538637449e+03 
4.680318689121413e+03 
4.680318689121413e+03 
4.893197045928099e+03 
4.893197045928099e+03 
5.121818953346844e+03 
5.121818953346844e+03 
5.365816610564680e+03 
5.365816610564680e+03 
5.624773016695740e+03 
5.624773016695740e+03 
5.898219231224985e+03 
5.898219231224985e+03 
6.185632039256403e+03 
6.185632039256403e+03 
6.486432108232133e+03 
6.486432108232133e+03 
6.799982718669155e+03 
6.799982718669155e+03 
7.125589141038358e+03 
7.125589141038358e+03 
7.462498732381171e+03 
7.462498732381171e+03 
7.809901769834453e+03 
7.809901769834453e+03 
8.166933190870486e+03 
8.166933190870486e+03 
8.532674752797182e+03 
8.532674752797182e+03 
8.906159549450320e+03 
8.906159549450320e+03 
9.286371474139220e+03 
9.286371474139220e+03 
9.672267784081587e+03 
9.672267784081587e+03 
1.006271721365237e+04 
1.006271721365237e+04 
1.045676313634857e+04 
1.045676313634857e+04 
1.085265193001444e+04 
1.085265193001444e+04 
1.125156268823250e+04 
    </DataArray>
    <DataArray type="Float64" Name="phiAnalytic_1" format="ascii">
3.557388243736528e+03 
3.566478380576319e+03 
3.566478380576319e+03 
3.593730741080543e+03 
3.593730741080543e+03 
3.639091135408183e+03 
3.639091135408183e+03 
3.702469116402026e+03 
3.702469116402026e+03 
3.783737790049205e+03 
3.783737790049205e+03 
3.882733563158282e+03 
3.882733563158282e+03 
3.999255840926205e+03 
3.999255840926205e+03 
4.133066690185172e+03 
4.133066690185172e+03 
4.283890486873224e+03 
4.283890486873224e+03 
4.451413568598558e+03 
4.451413568598558e+03 
4.635283915011270e+03 
4.635283915011270e+03 
4.835110880012724e+03 
4.835110880012724e+03 
5.050465000588785e+03 
5.050465000588785e+03 
5.280877907227693e+03 
5.280877907227693e+03 
5.525842360468001e+03 
5.525842360468001e+03 
5.784812437121288e+03 
5.784812437121288e+03 
6.057203888145254e+03 
6.057203888145254e+03 
6.342394688035317e+03 
6.342394688035317e+03 
6.639725792998197e+03 
6.639725792998197e+03 
6.948502122121750e+03 
6.948502122121750e+03 
7.267993772323667e+03 
7.267993772323667e+03 
7.597437474118576e+03 
7.597437474118576e+03 
7.936038291266033e+03 
7.936038291266033e+03 
8.282971563234287e+03 
8.282971563234287e+03 
8.637385085222937e+03 
8.637385085222937e+03 
8.998401516320129e+03 
8.998401516320129e+03 
9.365121002314661e+03 
9.365121002314661e+03 
9.736623995826256e+03 
9.736623995826256e+03 
1.011197425284013e+04 
1.011197425284013e+04 
1.049022198151092e+04 
1.049022198151092e+04 
1.087040711630430e+04 
1.087040711630430e+04 
1.125156268823250e+04 
    </DataArray>
    <DataArray type="Float64" Name="phi_2" format="ascii">
-1.779413259353781e+05 
-1.779350144422743e+05 
-1.779350144422743e+05 
-1.779161810703471e+05 
-1.779161810703471e+05 
-1.778851241262406e+05 
-1.778851241262406e+05 
-1.778423245930146e+05 
-1.778423245930146e+05 
-1.777884235788857e+05 
-1.777884235788857e+05 
-1.777241939194492e+05 
-1.777241939194492e+05 
-1.776505084696569e+05 
-1.776505084696569e+05 
-1.775683076125048e+05 
-1.775683076125048e+05 
-1.774785681965651e+05 
-1.774785681965651e+05 
-1.773822755988557e+05 
-1.773822755988557e+05 
-1.772804000109574e+05 
-1.772804000109574e+05 
-1.771738774676218e+05 
-1.771738774676218e+05 
-1.770635956496537e+05 
-1.770635956496537e+05 
-1.769503841323069e+05 
-1.769503841323069e+05 
-1.768350085221070e+05 
-1.768350085221070e+05 
-1.767181678134854e+05 
-1.767181678134854e+05 
-1.766004942759064e+05 
-1.766004942759064e+05 
-1.764825552238654e+05 
-1.764825552238654e+05 
-1.763648561006165e+05 
-1.763648561006165e+05 
-1.762478444014818e+05 
-1.762478444014818e+05 
-1.761319140597321e+05 
-1.761319140597321e+05 
-1.760174100084012e+05 
-1.760174100084012e+05 
-1.759046327098493e+05 
-1.759046327098493e+05 
-1.757938425108583e+05 
-1.757938425108583e+05 
-1.756852637302676e+05 
-1.756852637302676e+05 
-1.755790884355706e+05 
-1.755790884355706e+05 
-1.754754798600131e+05 
-1.754754798600131e+05 
-1.753745755552760e+05 
-1.753745755552760e+05 
-1.752764899520725e+05 
-1.752764899520725e+05 
-1.751813175652949e+05 
-1.751813175652949e+05 
-1.750891325568884e+05 
-1.750891325568884e+05 
-1.750000000000000e+05 
    </DataArray>
    <DataArray type="Float64" Name="phiAnalytic_2" format="ascii">
-1.778543115800552e+05 
-1.778479855724984e+05 
-1.778479855724984e+05 
-1.778291162917851e+05 
-1.778291162917851e+05 
-1.777980242262160e+05 
-1.777980242262160e+05 
-1.777552250262463e+05 
-1.777552250262463e+05 
-1.777014038436205e+05 
-1.777014038436205e+05 
-1.776373831899822e+05 
-1.776373831899822e+05 
-1.775640873055910e+05 
-1.775640873055910e+05 
-1.774825059795248e+05 
-1.774825059795248e+05 
-1.773936603497271e+05 
-1.773936603497271e+05 
-1.772985725698604e+05 
-1.772985725698604e+05 
-1.771982405073566e+05 
-1.771982405073566e+05 
-1.770936179570915e+05 
-1.770936179570915e+05 
-1.769856002990672e+05 
-1.769856002990672e+05 
-1.768750151325561e+05 
-1.768750151325561e+05 
-1.767626171828862e+05 
-1.767626171828862e+05 
-1.766490866765946e+05 
-1.766490866765946e+05 
-1.765350303816960e+05 
-1.765350303816960e+05 
-1.764209845771275e+05 
-1.764209845771275e+05 
-1.763074193188006e+05 
-1.763074193188006e+05 
-1.761947434862200e+05 
-1.761947434862200e+05 
-1.760833102078981e+05 
-1.760833102078981e+05 
-1.759734223667267e+05 
-1.759734223667267e+05 
-1.758653379737980e+05 
-1.758653379737980e+05 
-1.757592752698296e+05 
-1.757592752698296e+05 
-1.756554174682886e+05 
-1.756554174682886e+05 
-1.755539170954547e+05 
-1.755539170954547e+05 
-1.754548999123390e+05 
-1.754548999123390e+05 
-1.753584684238978e+05 
-1.753584684238978e+05 
-1.752647049944328e+05 
-1.752647049944328e+05 
-1.751736745962346e+05 
-1.751736745962346e+05 
-1.750854272228533e+05 
-1.750854272228533e+05 
-1.750000000000000e+05 
    </DataArray>
  </PointData>
  <CellData>
    <DataArray type="Float64" Name="Owner" format="ascii">
0.000000000000000e+00 
0.000000000000000e+00 
0.000000000000000e+00 
0.000000000000000e+00 
0.000000000000000e+00 
0.000000000000000e+00 
0.000000000000000e+00 
0.000000000000000e+00 
0.000000000000000e+00 
0.000000000000000e+00 
0.000000000000000e+00 
0.000000000000000e+00 
0.000000000000000e+00 
0.000000000000000e+00 
0.000000000000000e+00 
0.000000000000000e+00 
0.000000000000000e+00 
0.000000000000000e+00 
0.000000000000000e+00 
0.000000000000000e+00 
0.000000000000000e+00 
0.000000000000000e+00 
0.000000000000000e+00 
0.000000000000000e+00 
0.000000000000000e+00 
0.000000000000000e+00 
0.000000000000000e+00 
0.000000000000000e+00 
0.000000000000000e+00 
0.000000000000000e+00 
0.000000000000000e+00 
0.000000000000000e+00 
0.000000000000000e+00 
0.000000000000000e+00 
0.000000000000000e+00 
0.000000000000000e+00 
0.000000000000000e+00 
0.000000000000000e+00 
0.000000000000000e+00 
0.000000000000000e+00 
0.000000000000000e+00 
0.000000000000000e+00 
0.000000000000000e+00 
0.000000000000000e+00 
0.000000000000000e+00 
0.000000000000000e+00 
0.000000000000000e+00 
0.000000000000000e+00 
0.000000000000000e+00 
0.000000000000000e+00 
0.000000000000000e+00 
0.000000000000000e+00 
0.000000000000000e+00 
0.000000000000000e+00 
0.000000000000000e+00 
0.000000000000000e+00 
0.000000000000000e+00 
0.000000000000000e+00 
0.000000000000000e+00 
0.000000000000000e+00 
0.000000000000000e+00 
0.000000000000000e+00 
0.000000000000000e+00 
0.000000000000000e+00 
    </DataArray>
  </CellData>
</Piece>
</UnstructuredGrid>
</VTKFile>
