<?xml version="1.0" ?> 
<!-- 
# vtk DataFile Version 3.0
-->
<VTKFile type="UnstructuredGrid" version="0.1" compressor="vtkZLibDataCompressor" byte_order="LittleEndian">
<UnstructuredGrid>
<FieldData>
<DataArray type="Float32" Name="TIME" NumberOfTuples="1" format="ascii">1190.47619048</DataArray>
</FieldData>
<Piece NumberOfPoints="20" NumberOfCells="10" >
  <Points>
    <DataArray type="Float64" NumberOfComponents="3" format="ascii">
0.000000000000000e+00 0.000000000000000e+00 0.000000000000000e+00 
1.000000000000000e-04 0.000000000000000e+00 0.000000000000000e+00 
1.000000000000000e-04 0.000000000000000e+00 0.000000000000000e+00 
2.000000000000000e-04 0.000000000000000e+00 0.000000000000000e+00 
2.000000000000000e-04 0.000000000000000e+00 0.000000000000000e+00 
3.000000000000000e-04 0.000000000000000e+00 0.000000000000000e+00 
3.000000000000000e-04 0.000000000000000e+00 0.000000000000000e+00 
4.000000000000000e-04 0.000000000000000e+00 0.000000000000000e+00 
4.000000000000000e-04 0.000000000000000e+00 0.000000000000000e+00 
5.000000000000000e-04 0.000000000000000e+00 0.000000000000000e+00 
5.000000000000000e-04 0.000000000000000e+00 0.000000000000000e+00 
6.000000000000001e-04 0.000000000000000e+00 0.000000000000000e+00 
6.000000000000001e-04 0.000000000000000e+00 0.000000000000000e+00 
7.000000000000000e-04 0.000000000000000e+00 0.000000000000000e+00 
7.000000000000000e-04 0.000000000000000e+00 0.000000000000000e+00 
8.000000000000000e-04 0.000000000000000e+00 0.000000000000000e+00 
8.000000000000000e-04 0.000000000000000e+00 0.000000000000000e+00 
9.000000000000001e-04 0.000000000000000e+00 0.000000000000000e+00 
9.000000000000001e-04 0.000000000000000e+00 0.000000000000000e+00 
1.000000000000000e-03 0.000000000000000e+00 0.000000000000000e+00 
    </DataArray>
  </Points>

  <Cells>
    <DataArray type="Int32" Name="connectivity" format="ascii">
0 1 2 3 4 5 6 7 8 9 10 11 12 13 14 15 16 17 18 19     </DataArray>
    <DataArray type="Int32" Name="offsets" format="ascii">
2 4 6 8 10 12 14 16 18 20     </DataArray>
    <DataArray type="UInt8" Name="types" format="ascii">
3 3 3 3 3 3 3 3 3 3     </DataArray>
  </Cells>

  <PointData>
    <DataArray type="Float64" Name="phi_1" format="ascii">
9.818985380920401e+03 
9.836606172583708e+03 
9.836606172583708e+03 
9.889036674187451e+03 
9.889036674187451e+03 
9.974991474715815e+03 
9.974991474715815e+03 
1.009236292148133e+04 
1.009236292148133e+04 
1.023827026017580e+04 
1.023827026017580e+04 
1.040913524456932e+04 
1.040913524456932e+04 
1.060074639729903e+04 
1.060074639729903e+04 
1.080844653176584e+04 
1.080844653176584e+04 
1.102692694715710e+04 
1.102692694715710e+04 
1.125156268823250e+04 
    </DataArray>
    <DataArray type="Float64" Name="phiAnalytic_1" format="ascii">
1.003951316355870e+04 
1.005443550438381e+04 
1.005443550438381e+04 
1.009883508932640e+04 
1.009883508932640e+04 
1.017161865331476e+04 
1.017161865331476e+04 
1.027099402353888e+04 
1.027099402353888e+04 
1.039451424867316e+04 
1.039451424867316e+04 
1.053913785091787e+04 
1.053913785091787e+04 
1.070130371725851e+04 
1.070130371725851e+04 
1.087701878587578e+04 
1.087701878587578e+04 
1.106195636857810e+04 
1.106195636857810e+04 
1.125156268823250e+04 
    </DataArray>
    <DataArray type="Float64" Name="phi_2" format="ascii">
-1.753375886821504e+05 
-1.753331416202128e+05 
-1.753331416202128e+05 
-1.753199566736866e+05 
-1.753199566736866e+05 
-1.752984925677439e+05 
-1.752984925677439e+05 
-1.752694818303837e+05 
-1.752694818303837e+05 
-1.752338870177632e+05 
-1.752338870177632e+05 
-1.751928470069604e+05 
-1.751928470069604e+05 
-1.751476190164674e+05 
-1.751476190164674e+05 
-1.750995218130760e+05 
-1.750995218130760e+05 
-1.750498836196660e+05 
-1.750498836196660e+05 
-1.750000000000000e+05 
    </DataArray>
    <DataArray type="Float64" Name="phiAnalytic_2" format="ascii">
-1.752825318379367e+05 
-1.752788501533793e+05 
-1.752788501533793e+05 
-1.752679279840235e+05 
-1.752679279840235e+05 
-1.752501268961717e+05 
-1.752501268961717e+05 
-1.752260266982093e+05 
-1.752260266982093e+05 
-1.751963939463228e+05 
-1.751963939463228e+05 
-1.751621427368692e+05 
-1.751621427368692e+05 
-1.751242915786187e+05 
-1.751242915786187e+05 
-1.750839199977320e+05 
-1.750839199977320e+05 
-1.750421279205761e+05 
-1.750421279205761e+05 
-1.750000000000000e+05 
    </DataArray>
  </PointData>
  <CellData>
    <DataArray type="Float64" Name="Owner" format="ascii">
0.000000000000000e+00 
0.000000000000000e+00 
0.000000000000000e+00 
0.000000000000000e+00 
0.000000000000000e+00 
0.000000000000000e+00 
0.000000000000000e+00 
0.000000000000000e+00 
0.000000000000000e+00 
0.000000000000000e+00 
0.000000000000000e+00 
0.000000000000000e+00 
0.000000000000000e+00 
0.000000000000000e+00 
0.000000000000000e+00 
0.000000000000000e+00 
0.000000000000000e+00 
0.000000000000000e+00 
0.000000000000000e+00 
0.000000000000000e+00 
    </DataArray>
  </CellData>
</Piece>
</UnstructuredGrid>
</VTKFile>
