<?xml version="1.0" ?> 
<!-- 
# vtk DataFile Version 3.0
-->
<VTKFile type="UnstructuredGrid" version="0.1" compressor="vtkZLibDataCompressor" byte_order="LittleEndian">
<UnstructuredGrid>
<FieldData>
<DataArray type="Float32" Name="TIME" NumberOfTuples="1" format="ascii">892.85714286</DataArray>
</FieldData>
<Piece NumberOfPoints="20" NumberOfCells="10" >
  <Points>
    <DataArray type="Float64" NumberOfComponents="3" format="ascii">
0.000000000000000e+00 0.000000000000000e+00 0.000000000000000e+00 
1.000000000000000e-04 0.000000000000000e+00 0.000000000000000e+00 
1.000000000000000e-04 0.000000000000000e+00 0.000000000000000e+00 
2.000000000000000e-04 0.000000000000000e+00 0.000000000000000e+00 
2.000000000000000e-04 0.000000000000000e+00 0.000000000000000e+00 
3.000000000000000e-04 0.000000000000000e+00 0.000000000000000e+00 
3.000000000000000e-04 0.000000000000000e+00 0.000000000000000e+00 
4.000000000000000e-04 0.000000000000000e+00 0.000000000000000e+00 
4.000000000000000e-04 0.000000000000000e+00 0.000000000000000e+00 
5.000000000000000e-04 0.000000000000000e+00 0.000000000000000e+00 
5.000000000000000e-04 0.000000000000000e+00 0.000000000000000e+00 
6.000000000000001e-04 0.000000000000000e+00 0.000000000000000e+00 
6.000000000000001e-04 0.000000000000000e+00 0.000000000000000e+00 
7.000000000000000e-04 0.000000000000000e+00 0.000000000000000e+00 
7.000000000000000e-04 0.000000000000000e+00 0.000000000000000e+00 
8.000000000000000e-04 0.000000000000000e+00 0.000000000000000e+00 
8.000000000000000e-04 0.000000000000000e+00 0.000000000000000e+00 
9.000000000000001e-04 0.000000000000000e+00 0.000000000000000e+00 
9.000000000000001e-04 0.000000000000000e+00 0.000000000000000e+00 
1.000000000000000e-03 0.000000000000000e+00 0.000000000000000e+00 
    </DataArray>
  </Points>

  <Cells>
    <DataArray type="Int32" Name="connectivity" format="ascii">
0 1 2 3 4 5 6 7 8 9 10 11 12 13 14 15 16 17 18 19     </DataArray>
    <DataArray type="Int32" Name="offsets" format="ascii">
2 4 6 8 10 12 14 16 18 20     </DataArray>
    <DataArray type="UInt8" Name="types" format="ascii">
3 3 3 3 3 3 3 3 3 3     </DataArray>
  </Cells>

  <PointData>
    <DataArray type="Float64" Name="phi_1" format="ascii">
8.706979285449370e+03 
8.738237843517305e+03 
8.738237843517305e+03 
8.831254201224299e+03 
8.831254201224299e+03 
8.983766749113207e+03 
8.983766749113207e+03 
9.192063274592765e+03 
9.192063274592765e+03 
9.451060160273762e+03 
9.451060160273762e+03 
9.754437839794635e+03 
9.754437839794635e+03 
1.009472101613256e+04 
1.009472101613256e+04 
1.046371836634505e+04 
1.046371836634505e+04 
1.085173431627465e+04 
1.085173431627465e+04 
1.125156268823250e+04 
    </DataArray>
    <DataArray type="Float64" Name="phiAnalytic_1" format="ascii">
9.005535636337689e+03 
9.033187929489059e+03 
9.033187929489059e+03 
9.115463923582520e+03 
9.115463923582520e+03 
9.250337726913995e+03 
9.250337726913995e+03 
9.434488322053789e+03 
9.434488322053789e+03 
9.663381335253958e+03 
9.663381335253958e+03 
9.931380682314824e+03 
9.931380682314824e+03 
1.023188734300992e+04 
1.023188734300992e+04 
1.055750184800119e+04 
1.055750184800119e+04 
1.090020647790147e+04 
1.090020647790147e+04 
1.125156268823250e+04 
    </DataArray>
    <DataArray type="Float64" Name="phi_2" format="ascii">
-1.756355257301168e+05 
-1.756266319782752e+05 
-1.756266319782752e+05 
-1.756003551782492e+05 
-1.756003551782492e+05 
-1.755578683527991e+05 
-1.755578683527991e+05 
-1.755010002846241e+05 
-1.755010002846241e+05 
-1.754320721298103e+05 
-1.754320721298103e+05 
-1.753537121450640e+05 
-1.753537121450640e+05 
-1.752686757022807e+05 
-1.752686757022807e+05 
-1.751796919550814e+05 
-1.751796919550814e+05 
-1.750893440406964e+05 
-1.750893440406964e+05 
-1.750000000000000e+05 
    </DataArray>
    <DataArray type="Float64" Name="phiAnalytic_2" format="ascii">
-1.755519526147151e+05 
-1.755443528434936e+05 
-1.755443528434936e+05 
-1.755218774878049e+05 
-1.755218774878049e+05 
-1.754854691919393e+05 
-1.754854691919393e+05 
-1.754366069984303e+05 
-1.754366069984303e+05 
-1.753771855495352e+05 
-1.753771855495352e+05 
-1.753093752512886e+05 
-1.753093752512886e+05 
-1.752354827841571e+05 
-1.752354827841571e+05 
-1.751578272592510e+05 
-1.751578272592510e+05 
-1.750786412613545e+05 
-1.750786412613545e+05 
-1.750000000000000e+05 
    </DataArray>
  </PointData>
  <CellData>
    <DataArray type="Float64" Name="Owner" format="ascii">
0.000000000000000e+00 
0.000000000000000e+00 
0.000000000000000e+00 
0.000000000000000e+00 
0.000000000000000e+00 
0.000000000000000e+00 
0.000000000000000e+00 
0.000000000000000e+00 
0.000000000000000e+00 
0.000000000000000e+00 
0.000000000000000e+00 
0.000000000000000e+00 
0.000000000000000e+00 
0.000000000000000e+00 
0.000000000000000e+00 
0.000000000000000e+00 
0.000000000000000e+00 
0.000000000000000e+00 
0.000000000000000e+00 
0.000000000000000e+00 
    </DataArray>
  </CellData>
</Piece>
</UnstructuredGrid>
</VTKFile>
