<?xml version="1.0" ?> 
<!-- 
# vtk DataFile Version 3.0
-->
<VTKFile type="UnstructuredGrid" version="0.1" compressor="vtkZLibDataCompressor" byte_order="LittleEndian">
<UnstructuredGrid>
<FieldData>
<DataArray type="Float32" Name="TIME" NumberOfTuples="1" format="ascii">372.023809525</DataArray>
</FieldData>
<Piece NumberOfPoints="20" NumberOfCells="10" >
  <Points>
    <DataArray type="Float64" NumberOfComponents="3" format="ascii">
0.000000000000000e+00 0.000000000000000e+00 0.000000000000000e+00 
1.000000000000000e-04 0.000000000000000e+00 0.000000000000000e+00 
1.000000000000000e-04 0.000000000000000e+00 0.000000000000000e+00 
2.000000000000000e-04 0.000000000000000e+00 0.000000000000000e+00 
2.000000000000000e-04 0.000000000000000e+00 0.000000000000000e+00 
3.000000000000000e-04 0.000000000000000e+00 0.000000000000000e+00 
3.000000000000000e-04 0.000000000000000e+00 0.000000000000000e+00 
4.000000000000000e-04 0.000000000000000e+00 0.000000000000000e+00 
4.000000000000000e-04 0.000000000000000e+00 0.000000000000000e+00 
5.000000000000000e-04 0.000000000000000e+00 0.000000000000000e+00 
5.000000000000000e-04 0.000000000000000e+00 0.000000000000000e+00 
6.000000000000001e-04 0.000000000000000e+00 0.000000000000000e+00 
6.000000000000001e-04 0.000000000000000e+00 0.000000000000000e+00 
7.000000000000000e-04 0.000000000000000e+00 0.000000000000000e+00 
7.000000000000000e-04 0.000000000000000e+00 0.000000000000000e+00 
8.000000000000000e-04 0.000000000000000e+00 0.000000000000000e+00 
8.000000000000000e-04 0.000000000000000e+00 0.000000000000000e+00 
9.000000000000001e-04 0.000000000000000e+00 0.000000000000000e+00 
9.000000000000001e-04 0.000000000000000e+00 0.000000000000000e+00 
1.000000000000000e-03 0.000000000000000e+00 0.000000000000000e+00 
    </DataArray>
  </Points>

  <Cells>
    <DataArray type="Int32" Name="connectivity" format="ascii">
0 1 2 3 4 5 6 7 8 9 10 11 12 13 14 15 16 17 18 19     </DataArray>
    <DataArray type="Int32" Name="offsets" format="ascii">
2 4 6 8 10 12 14 16 18 20     </DataArray>
    <DataArray type="UInt8" Name="types" format="ascii">
3 3 3 3 3 3 3 3 3 3     </DataArray>
  </Cells>

  <PointData>
    <DataArray type="Float64" Name="phi_1" format="ascii">
4.358580231205481e+03 
4.437486709805130e+03 
4.437486709805130e+03 
4.673476961055373e+03 
4.673476961055373e+03 
5.064130673348541e+03 
5.064130673348541e+03 
5.604721795811186e+03 
5.604721795811186e+03 
6.287340570028127e+03 
6.287340570028127e+03 
7.100118817053180e+03 
7.100118817053180e+03 
8.026053255801703e+03 
8.026053255801703e+03 
9.044407477973789e+03 
9.044407477973789e+03 
1.012391263361796e+04 
1.012391263361796e+04 
1.125156268823250e+04 
    </DataArray>
    <DataArray type="Float64" Name="phiAnalytic_1" format="ascii">
4.645732367714663e+03 
4.726614926733596e+03 
4.726614926733596e+03 
4.967368265604518e+03 
4.967368265604518e+03 
5.362334814236667e+03 
5.362334814236667e+03 
5.902174098493955e+03 
5.902174098493955e+03 
6.574008829404534e+03 
6.574008829404534e+03 
7.361651445515325e+03 
7.361651445515325e+03 
8.245925266109156e+03 
8.245925266109156e+03 
9.205089228388761e+03 
9.205089228388761e+03 
1.021536609608961e+04 
1.021536609608961e+04 
1.125156268823250e+04 
    </DataArray>
    <DataArray type="Float64" Name="phi_2" format="ascii">
-1.773508360525756e+05 
-1.773060970746937e+05 
-1.773060970746937e+05 
-1.771769775385693e+05 
-1.771769775385693e+05 
-1.769771497855047e+05 
-1.769771497855047e+05 
-1.767250092725523e+05 
-1.767250092725523e+05 
-1.764396498380171e+05 
-1.764396498380171e+05 
-1.761381297092797e+05 
-1.761381297092797e+05 
-1.758342814152751e+05 
-1.758342814152751e+05 
-1.755386330884217e+05 
-1.755386330884217e+05 
-1.752587478043455e+05 
-1.752587478043455e+05 
-1.750000000000000e+05 
    </DataArray>
    <DataArray type="Float64" Name="phiAnalytic_2" format="ascii">
-1.771926592575711e+05 
-1.771498741999224e+05 
-1.771498741999224e+05 
-1.770267242612542e+05 
-1.770267242612542e+05 
-1.768370715369983e+05 
-1.768370715369983e+05 
-1.765993000003481e+05 
-1.765993000003481e+05 
-1.763320757558056e+05 
-1.763320757558056e+05 
-1.760515714203272e+05 
-1.760515714203272e+05 
-1.757703868671268e+05 
-1.757703868671268e+05 
-1.754976242146768e+05 
-1.754976242146768e+05 
-1.752394885242391e+05 
-1.752394885242391e+05 
-1.750000000000000e+05 
    </DataArray>
  </PointData>
  <CellData>
    <DataArray type="Float64" Name="Owner" format="ascii">
0.000000000000000e+00 
0.000000000000000e+00 
0.000000000000000e+00 
0.000000000000000e+00 
0.000000000000000e+00 
0.000000000000000e+00 
0.000000000000000e+00 
0.000000000000000e+00 
0.000000000000000e+00 
0.000000000000000e+00 
0.000000000000000e+00 
0.000000000000000e+00 
0.000000000000000e+00 
0.000000000000000e+00 
0.000000000000000e+00 
0.000000000000000e+00 
0.000000000000000e+00 
0.000000000000000e+00 
0.000000000000000e+00 
0.000000000000000e+00 
    </DataArray>
  </CellData>
</Piece>
</UnstructuredGrid>
</VTKFile>
