<?xml version="1.0" ?> 
<!-- 
# vtk DataFile Version 3.0
-->
<VTKFile type="UnstructuredGrid" version="0.1" compressor="vtkZLibDataCompressor" byte_order="LittleEndian">
<UnstructuredGrid>
<FieldData>
<DataArray type="Float32" Name="TIME" NumberOfTuples="1" format="ascii">74.404761905</DataArray>
</FieldData>
<Piece NumberOfPoints="20" NumberOfCells="10" >
  <Points>
    <DataArray type="Float64" NumberOfComponents="3" format="ascii">
0.000000000000000e+00 0.000000000000000e+00 0.000000000000000e+00 
1.000000000000000e-04 0.000000000000000e+00 0.000000000000000e+00 
1.000000000000000e-04 0.000000000000000e+00 0.000000000000000e+00 
2.000000000000000e-04 0.000000000000000e+00 0.000000000000000e+00 
2.000000000000000e-04 0.000000000000000e+00 0.000000000000000e+00 
3.000000000000000e-04 0.000000000000000e+00 0.000000000000000e+00 
3.000000000000000e-04 0.000000000000000e+00 0.000000000000000e+00 
4.000000000000000e-04 0.000000000000000e+00 0.000000000000000e+00 
4.000000000000000e-04 0.000000000000000e+00 0.000000000000000e+00 
5.000000000000000e-04 0.000000000000000e+00 0.000000000000000e+00 
5.000000000000000e-04 0.000000000000000e+00 0.000000000000000e+00 
6.000000000000001e-04 0.000000000000000e+00 0.000000000000000e+00 
6.000000000000001e-04 0.000000000000000e+00 0.000000000000000e+00 
7.000000000000000e-04 0.000000000000000e+00 0.000000000000000e+00 
7.000000000000000e-04 0.000000000000000e+00 0.000000000000000e+00 
8.000000000000000e-04 0.000000000000000e+00 0.000000000000000e+00 
8.000000000000000e-04 0.000000000000000e+00 0.000000000000000e+00 
9.000000000000001e-04 0.000000000000000e+00 0.000000000000000e+00 
9.000000000000001e-04 0.000000000000000e+00 0.000000000000000e+00 
1.000000000000000e-03 0.000000000000000e+00 0.000000000000000e+00 
    </DataArray>
  </Points>

  <Cells>
    <DataArray type="Int32" Name="connectivity" format="ascii">
0 1 2 3 4 5 6 7 8 9 10 11 12 13 14 15 16 17 18 19     </DataArray>
    <DataArray type="Int32" Name="offsets" format="ascii">
2 4 6 8 10 12 14 16 18 20     </DataArray>
    <DataArray type="UInt8" Name="types" format="ascii">
3 3 3 3 3 3 3 3 3 3     </DataArray>
  </Cells>

  <PointData>
    <DataArray type="Float64" Name="phi_1" format="ascii">
4.452099522980707e+02 
4.787832884026556e+02 
4.787832884026556e+02 
5.851525719958634e+02 
5.851525719958634e+02 
7.819808237921005e+02 
7.819808237921005e+02 
1.101488541789992e+03 
1.101488541789992e+03 
1.595490760605038e+03 
1.595490760605038e+03 
2.344415684749873e+03 
2.344415684749873e+03 
3.468091582607342e+03 
3.468091582607342e+03 
5.155985173019019e+03 
5.155985173019019e+03 
7.647943356423629e+03 
7.647943356423629e+03 
1.125156268823250e+04 
    </DataArray>
    <DataArray type="Float64" Name="phiAnalytic_1" format="ascii">
1.315117742257514e+02 
1.698664206006385e+02 
1.698664206006385e+02 
2.997155886491306e+02 
2.997155886491306e+02 
5.647482147553615e+02 
5.647482147553615e+02 
1.034069603490856e+03 
1.034069603490856e+03 
1.792438056437733e+03 
1.792438056437733e+03 
2.921497509439239e+03 
2.921497509439239e+03 
4.473254881984733e+03 
4.473254881984733e+03 
6.442833923206434e+03 
6.442833923206434e+03 
8.751712105027838e+03 
8.751712105027838e+03 
1.125156268823250e+04 
    </DataArray>
    <DataArray type="Float64" Name="phi_2" format="ascii">
-1.830062203176243e+05 
-1.828216896369741e+05 
-1.828216896369741e+05 
-1.823151804642527e+05 
-1.823151804642527e+05 
-1.815881182546879e+05 
-1.815881182546879e+05 
-1.807335904339036e+05 
-1.807335904339036e+05 
-1.798120951742314e+05 
-1.798120951742314e+05 
-1.788568652079335e+05 
-1.788568652079335e+05 
-1.778845334673564e+05 
-1.778845334673564e+05 
-1.769039964286607e+05 
-1.769039964286607e+05 
-1.759174748940855e+05 
-1.759174748940855e+05 
-1.750000000000000e+05 
    </DataArray>
    <DataArray type="Float64" Name="phiAnalytic_2" format="ascii">
-1.860286774570010e+05 
-1.853943080339211e+05 
-1.853943080339211e+05 
-1.839867809565191e+05 
-1.839867809565191e+05 
-1.824163350134615e+05 
-1.824163350134615e+05 
-1.809169534271903e+05 
-1.809169534271903e+05 
-1.795534178852659e+05 
-1.795534178852659e+05 
-1.783424661831953e+05 
-1.783424661831953e+05 
-1.772864397330658e+05 
-1.772864397330658e+05 
-1.763820371599130e+05 
-1.763820371599130e+05 
-1.756228223219519e+05 
-1.756228223219519e+05 
-1.750000000000000e+05 
    </DataArray>
  </PointData>
  <CellData>
    <DataArray type="Float64" Name="Owner" format="ascii">
0.000000000000000e+00 
0.000000000000000e+00 
0.000000000000000e+00 
0.000000000000000e+00 
0.000000000000000e+00 
0.000000000000000e+00 
0.000000000000000e+00 
0.000000000000000e+00 
0.000000000000000e+00 
0.000000000000000e+00 
0.000000000000000e+00 
0.000000000000000e+00 
0.000000000000000e+00 
0.000000000000000e+00 
0.000000000000000e+00 
0.000000000000000e+00 
0.000000000000000e+00 
0.000000000000000e+00 
0.000000000000000e+00 
0.000000000000000e+00 
    </DataArray>
  </CellData>
</Piece>
</UnstructuredGrid>
</VTKFile>
