<?xml version="1.0" ?> 
<!-- 
# vtk DataFile Version 3.0
-->
<VTKFile type="UnstructuredGrid" version="0.1" compressor="vtkZLibDataCompressor" byte_order="LittleEndian">
<UnstructuredGrid>
<FieldData>
<DataArray type="Float32" Name="TIME" NumberOfTuples="1" format="ascii">148.80952381</DataArray>
</FieldData>
<Piece NumberOfPoints="20" NumberOfCells="10" >
  <Points>
    <DataArray type="Float64" NumberOfComponents="3" format="ascii">
0.000000000000000e+00 0.000000000000000e+00 0.000000000000000e+00 
1.000000000000000e-04 0.000000000000000e+00 0.000000000000000e+00 
1.000000000000000e-04 0.000000000000000e+00 0.000000000000000e+00 
2.000000000000000e-04 0.000000000000000e+00 0.000000000000000e+00 
2.000000000000000e-04 0.000000000000000e+00 0.000000000000000e+00 
3.000000000000000e-04 0.000000000000000e+00 0.000000000000000e+00 
3.000000000000000e-04 0.000000000000000e+00 0.000000000000000e+00 
4.000000000000000e-04 0.000000000000000e+00 0.000000000000000e+00 
4.000000000000000e-04 0.000000000000000e+00 0.000000000000000e+00 
5.000000000000000e-04 0.000000000000000e+00 0.000000000000000e+00 
5.000000000000000e-04 0.000000000000000e+00 0.000000000000000e+00 
6.000000000000001e-04 0.000000000000000e+00 0.000000000000000e+00 
6.000000000000001e-04 0.000000000000000e+00 0.000000000000000e+00 
7.000000000000000e-04 0.000000000000000e+00 0.000000000000000e+00 
7.000000000000000e-04 0.000000000000000e+00 0.000000000000000e+00 
8.000000000000000e-04 0.000000000000000e+00 0.000000000000000e+00 
8.000000000000000e-04 0.000000000000000e+00 0.000000000000000e+00 
9.000000000000001e-04 0.000000000000000e+00 0.000000000000000e+00 
9.000000000000001e-04 0.000000000000000e+00 0.000000000000000e+00 
1.000000000000000e-03 0.000000000000000e+00 0.000000000000000e+00 
    </DataArray>
  </Points>

  <Cells>
    <DataArray type="Int32" Name="connectivity" format="ascii">
0 1 2 3 4 5 6 7 8 9 10 11 12 13 14 15 16 17 18 19     </DataArray>
    <DataArray type="Int32" Name="offsets" format="ascii">
2 4 6 8 10 12 14 16 18 20     </DataArray>
    <DataArray type="UInt8" Name="types" format="ascii">
3 3 3 3 3 3 3 3 3 3     </DataArray>
  </Cells>

  <PointData>
    <DataArray type="Float64" Name="phi_1" format="ascii">
1.276069030710836e+03 
1.342288079771709e+03 
1.342288079771709e+03 
1.546433512903778e+03 
1.546433512903778e+03 
1.904687100161638e+03 
1.904687100161638e+03 
2.443219630436372e+03 
2.443219630436372e+03 
3.196873563629599e+03 
3.196873563629599e+03 
4.206592652424005e+03 
4.206592652424005e+03 
5.511682964602585e+03 
5.511682964602585e+03 
7.141358271035329e+03 
7.141358271035329e+03 
9.066382173034388e+03 
9.066382173034388e+03 
1.125156268823250e+04 
    </DataArray>
    <DataArray type="Float64" Name="phiAnalytic_1" format="ascii">
1.047982948847311e+03 
1.145270626645799e+03 
1.145270626645799e+03 
1.440782940109293e+03 
1.440782940109293e+03 
1.944137315159919e+03 
1.944137315159919e+03 
2.667186223640284e+03 
2.667186223640284e+03 
3.618626567107274e+03 
3.618626567107274e+03 
4.798086482754667e+03 
4.798086482754667e+03 
6.191031754469374e+03 
6.191031754469374e+03 
7.765774356221021e+03 
7.765774356221021e+03 
9.473496249337781e+03 
9.473496249337781e+03 
1.125156268823250e+04 
    </DataArray>
    <DataArray type="Float64" Name="phi_2" format="ascii">
-1.803958683332901e+05 
-1.802683670926573e+05 
-1.802683670926573e+05 
-1.799127061800120e+05 
-1.799127061800120e+05 
-1.793916205632542e+05 
-1.793916205632542e+05 
-1.787714371538183e+05 
-1.787714371538183e+05 
-1.781036890715241e+05 
-1.781036890715241e+05 
-1.774233908770505e+05 
-1.774233908770505e+05 
-1.767542196570208e+05 
-1.767542196570208e+05 
-1.761146475773414e+05 
-1.761146475773414e+05 
-1.755223306135638e+05 
-1.755223306135638e+05 
-1.750000000000000e+05 
    </DataArray>
    <DataArray type="Float64" Name="phiAnalytic_2" format="ascii">
-1.808838234472917e+05 
-1.806637696314531e+05 
-1.806637696314531e+05 
-1.800947673411489e+05 
-1.800947673411489e+05 
-1.793520346477933e+05 
-1.793520346477933e+05 
-1.785682178472555e+05 
-1.785682178472555e+05 
-1.778120033031926e+05 
-1.778120033031926e+05 
-1.771126723232674e+05 
-1.771126723232674e+05 
-1.764808595961125e+05 
-1.764808595961125e+05 
-1.759190986506096e+05 
-1.759190986506096e+05 
-1.754263791783241e+05 
-1.754263791783241e+05 
-1.750000000000000e+05 
    </DataArray>
  </PointData>
  <CellData>
    <DataArray type="Float64" Name="Owner" format="ascii">
0.000000000000000e+00 
0.000000000000000e+00 
0.000000000000000e+00 
0.000000000000000e+00 
0.000000000000000e+00 
0.000000000000000e+00 
0.000000000000000e+00 
0.000000000000000e+00 
0.000000000000000e+00 
0.000000000000000e+00 
0.000000000000000e+00 
0.000000000000000e+00 
0.000000000000000e+00 
0.000000000000000e+00 
0.000000000000000e+00 
0.000000000000000e+00 
0.000000000000000e+00 
0.000000000000000e+00 
0.000000000000000e+00 
0.000000000000000e+00 
    </DataArray>
  </CellData>
</Piece>
</UnstructuredGrid>
</VTKFile>
