<?xml version="1.0" ?> 
<!-- 
# vtk DataFile Version 3.0
-->
<VTKFile type="UnstructuredGrid" version="0.1" compressor="vtkZLibDataCompressor" byte_order="LittleEndian">
<UnstructuredGrid>
<FieldData>
<DataArray type="Float32" Name="TIME" NumberOfTuples="1" format="ascii">967.261904765</DataArray>
</FieldData>
<Piece NumberOfPoints="20" NumberOfCells="10" >
  <Points>
    <DataArray type="Float64" NumberOfComponents="3" format="ascii">
0.000000000000000e+00 0.000000000000000e+00 0.000000000000000e+00 
1.000000000000000e-04 0.000000000000000e+00 0.000000000000000e+00 
1.000000000000000e-04 0.000000000000000e+00 0.000000000000000e+00 
2.000000000000000e-04 0.000000000000000e+00 0.000000000000000e+00 
2.000000000000000e-04 0.000000000000000e+00 0.000000000000000e+00 
3.000000000000000e-04 0.000000000000000e+00 0.000000000000000e+00 
3.000000000000000e-04 0.000000000000000e+00 0.000000000000000e+00 
4.000000000000000e-04 0.000000000000000e+00 0.000000000000000e+00 
4.000000000000000e-04 0.000000000000000e+00 0.000000000000000e+00 
5.000000000000000e-04 0.000000000000000e+00 0.000000000000000e+00 
5.000000000000000e-04 0.000000000000000e+00 0.000000000000000e+00 
6.000000000000001e-04 0.000000000000000e+00 0.000000000000000e+00 
6.000000000000001e-04 0.000000000000000e+00 0.000000000000000e+00 
7.000000000000000e-04 0.000000000000000e+00 0.000000000000000e+00 
7.000000000000000e-04 0.000000000000000e+00 0.000000000000000e+00 
8.000000000000000e-04 0.000000000000000e+00 0.000000000000000e+00 
8.000000000000000e-04 0.000000000000000e+00 0.000000000000000e+00 
9.000000000000001e-04 0.000000000000000e+00 0.000000000000000e+00 
9.000000000000001e-04 0.000000000000000e+00 0.000000000000000e+00 
1.000000000000000e-03 0.000000000000000e+00 0.000000000000000e+00 
    </DataArray>
  </Points>

  <Cells>
    <DataArray type="Int32" Name="connectivity" format="ascii">
0 1 2 3 4 5 6 7 8 9 10 11 12 13 14 15 16 17 18 19     </DataArray>
    <DataArray type="Int32" Name="offsets" format="ascii">
2 4 6 8 10 12 14 16 18 20     </DataArray>
    <DataArray type="UInt8" Name="types" format="ascii">
3 3 3 3 3 3 3 3 3 3     </DataArray>
  </Cells>

  <PointData>
    <DataArray type="Float64" Name="phi_1" format="ascii">
9.047342680330745e+03 
9.074433661557345e+03 
9.074433661557345e+03 
9.155046025480671e+03 
9.155046025480671e+03 
9.287212855190039e+03 
9.287212855190039e+03 
9.467707237453098e+03 
9.467707237453098e+03 
9.692113695550766e+03 
9.692113695550766e+03 
9.954945985138023e+03 
9.954945985138023e+03 
1.024972589136822e+04 
1.024972589136822e+04 
1.056933673315085e+04 
1.056933673315085e+04 
1.090545090790188e+04 
1.090545090790188e+04 
1.125156268823250e+04 
    </DataArray>
    <DataArray type="Float64" Name="phiAnalytic_1" format="ascii">
9.326515617364937e+03 
9.350216134519258e+03 
9.350216134519258e+03 
9.420734102057359e+03 
9.420734102057359e+03 
9.536333137658352e+03 
9.536333137658352e+03 
9.694166815212348e+03 
9.694166815212348e+03 
9.890348752014184e+03 
9.890348752014184e+03 
1.012004830304003e+04 
1.012004830304003e+04 
1.037760950629346e+04 
1.037760950629346e+04 
1.065669035064613e+04 
1.065669035064613e+04 
1.095041893709232e+04 
1.095041893709232e+04 
1.125156268823250e+04 
    </DataArray>
    <DataArray type="Float64" Name="phi_2" format="ascii">
-1.755404722529184e+05 
-1.755330535035687e+05 
-1.755330535035687e+05 
-1.755111093781470e+05 
-1.755111093781470e+05 
-1.754755487181235e+05 
-1.754755487181235e+05 
-1.754277994721635e+05 
-1.754277994721635e+05 
-1.753696944018409e+05 
-1.753696944018409e+05 
-1.753033381892461e+05 
-1.753033381892461e+05 
-1.752309739102149e+05 
-1.752309739102149e+05 
-1.751548640267899e+05 
-1.751548640267899e+05 
-1.750771923518158e+05 
-1.750771923518158e+05 
-1.750000000000000e+05 
    </DataArray>
    <DataArray type="Float64" Name="phiAnalytic_2" format="ascii">
-1.754651393476112e+05 
-1.754588481691633e+05 
-1.754588481691633e+05 
-1.754402234213515e+05 
-1.754402234213515e+05 
-1.754099916723571e+05 
-1.754099916723571e+05 
-1.753693011109207e+05 
-1.753693011109207e+05 
-1.753196378147199e+05 
-1.753196378147199e+05 
-1.752627265356943e+05 
-1.752627265356943e+05 
-1.752004285658000e+05 
-1.752004285658000e+05 
-1.751346472914037e+05 
-1.751346472914037e+05 
-1.750672486517948e+05 
-1.750672486517948e+05 
-1.750000000000000e+05 
    </DataArray>
  </PointData>
  <CellData>
    <DataArray type="Float64" Name="Owner" format="ascii">
0.000000000000000e+00 
0.000000000000000e+00 
0.000000000000000e+00 
0.000000000000000e+00 
0.000000000000000e+00 
0.000000000000000e+00 
0.000000000000000e+00 
0.000000000000000e+00 
0.000000000000000e+00 
0.000000000000000e+00 
0.000000000000000e+00 
0.000000000000000e+00 
0.000000000000000e+00 
0.000000000000000e+00 
0.000000000000000e+00 
0.000000000000000e+00 
0.000000000000000e+00 
0.000000000000000e+00 
0.000000000000000e+00 
0.000000000000000e+00 
    </DataArray>
  </CellData>
</Piece>
</UnstructuredGrid>
</VTKFile>
