<?xml version="1.0" ?> 
<!-- 
# vtk DataFile Version 3.0
-->
<VTKFile type="UnstructuredGrid" version="0.1" compressor="vtkZLibDataCompressor" byte_order="LittleEndian">
<UnstructuredGrid>
<FieldData>
<DataArray type="Float32" Name="TIME" NumberOfTuples="1" format="ascii">148.80952381</DataArray>
</FieldData>
<Piece NumberOfPoints="16" NumberOfCells="8" >
  <Points>
    <DataArray type="Float64" NumberOfComponents="3" format="ascii">
0.000000000000000e+00 0.000000000000000e+00 0.000000000000000e+00 
1.250000000000000e-04 0.000000000000000e+00 0.000000000000000e+00 
1.250000000000000e-04 0.000000000000000e+00 0.000000000000000e+00 
2.500000000000000e-04 0.000000000000000e+00 0.000000000000000e+00 
2.500000000000000e-04 0.000000000000000e+00 0.000000000000000e+00 
3.750000000000000e-04 0.000000000000000e+00 0.000000000000000e+00 
3.750000000000000e-04 0.000000000000000e+00 0.000000000000000e+00 
5.000000000000000e-04 0.000000000000000e+00 0.000000000000000e+00 
5.000000000000000e-04 0.000000000000000e+00 0.000000000000000e+00 
6.250000000000000e-04 0.000000000000000e+00 0.000000000000000e+00 
6.250000000000000e-04 0.000000000000000e+00 0.000000000000000e+00 
7.500000000000000e-04 0.000000000000000e+00 0.000000000000000e+00 
7.500000000000000e-04 0.000000000000000e+00 0.000000000000000e+00 
8.750000000000000e-04 0.000000000000000e+00 0.000000000000000e+00 
8.750000000000000e-04 0.000000000000000e+00 0.000000000000000e+00 
1.000000000000000e-03 0.000000000000000e+00 0.000000000000000e+00 
    </DataArray>
  </Points>

  <Cells>
    <DataArray type="Int32" Name="connectivity" format="ascii">
0 1 2 3 4 5 6 7 8 9 10 11 12 13 14 15     </DataArray>
    <DataArray type="Int32" Name="offsets" format="ascii">
2 4 6 8 10 12 14 16     </DataArray>
    <DataArray type="UInt8" Name="types" format="ascii">
3 3 3 3 3 3 3 3     </DataArray>
  </Cells>

  <PointData>
    <DataArray type="Float64" Name="phi_1" format="ascii">
1.368482112768403e+03 
1.452423979013338e+03 
1.452423979013338e+03 
1.715262950694139e+03 
1.715262950694139e+03 
2.190930027733238e+03 
2.190930027733238e+03 
2.940486827815383e+03 
2.940486827815383e+03 
4.057384833202521e+03 
4.057384833202521e+03 
5.689254653294288e+03 
5.689254653294288e+03 
8.012906934713170e+03 
8.012906934713170e+03 
1.125156268823250e+04 
    </DataArray>
    <DataArray type="Float64" Name="phiAnalytic_1" format="ascii">
1.047982948847311e+03 
1.200270351328393e+03 
1.200270351328393e+03 
1.665733966569835e+03 
1.665733966569835e+03 
2.465241884590865e+03 
2.465241884590865e+03 
3.618626567107274e+03 
3.618626567107274e+03 
5.127241743128277e+03 
5.127241743128277e+03 
6.958351171687128e+03 
6.958351171687128e+03 
9.037337532569780e+03 
9.037337532569780e+03 
1.125156268823250e+04 
    </DataArray>
    <DataArray type="Float64" Name="phi_2" format="ascii">
-1.802226214428146e+05 
-1.800721423237818e+05 
-1.800721423237818e+05 
-1.796533449166724e+05 
-1.796533449166724e+05 
-1.790401806939346e+05 
-1.790401806939346e+05 
-1.783065165907750e+05 
-1.783065165907750e+05 
-1.775050599245508e+05 
-1.775050599245508e+05 
-1.766678851858920e+05 
-1.766678851858920e+05 
-1.758110620477600e+05 
-1.758110620477600e+05 
-1.750000000000000e+05 
    </DataArray>
    <DataArray type="Float64" Name="phiAnalytic_2" format="ascii">
-1.808838234472917e+05 
-1.805474984898697e+05 
-1.805474984898697e+05 
-1.797351423165483e+05 
-1.797351423165483e+05 
-1.787633855313496e+05 
-1.787633855313496e+05 
-1.778120033031926e+05 
-1.778120033031926e+05 
-1.769482010556415e+05 
-1.769482010556415e+05 
-1.761912324092358e+05 
-1.761912324092358e+05 
-1.755432144022705e+05 
-1.755432144022705e+05 
-1.750000000000000e+05 
    </DataArray>
  </PointData>
  <CellData>
    <DataArray type="Float64" Name="Owner" format="ascii">
0.000000000000000e+00 
0.000000000000000e+00 
0.000000000000000e+00 
0.000000000000000e+00 
0.000000000000000e+00 
0.000000000000000e+00 
0.000000000000000e+00 
0.000000000000000e+00 
0.000000000000000e+00 
0.000000000000000e+00 
0.000000000000000e+00 
0.000000000000000e+00 
0.000000000000000e+00 
0.000000000000000e+00 
0.000000000000000e+00 
0.000000000000000e+00 
    </DataArray>
  </CellData>
</Piece>
</UnstructuredGrid>
</VTKFile>
