<?xml version="1.0" ?> 
<!-- 
# vtk DataFile Version 3.0
-->
<VTKFile type="UnstructuredGrid" version="0.1" compressor="vtkZLibDataCompressor" byte_order="LittleEndian">
<UnstructuredGrid>
<FieldData>
<DataArray type="Float32" Name="TIME" NumberOfTuples="1" format="ascii">1190.47619048</DataArray>
</FieldData>
<Piece NumberOfPoints="16" NumberOfCells="8" >
  <Points>
    <DataArray type="Float64" NumberOfComponents="3" format="ascii">
0.000000000000000e+00 0.000000000000000e+00 0.000000000000000e+00 
1.250000000000000e-04 0.000000000000000e+00 0.000000000000000e+00 
1.250000000000000e-04 0.000000000000000e+00 0.000000000000000e+00 
2.500000000000000e-04 0.000000000000000e+00 0.000000000000000e+00 
2.500000000000000e-04 0.000000000000000e+00 0.000000000000000e+00 
3.750000000000000e-04 0.000000000000000e+00 0.000000000000000e+00 
3.750000000000000e-04 0.000000000000000e+00 0.000000000000000e+00 
5.000000000000000e-04 0.000000000000000e+00 0.000000000000000e+00 
5.000000000000000e-04 0.000000000000000e+00 0.000000000000000e+00 
6.250000000000000e-04 0.000000000000000e+00 0.000000000000000e+00 
6.250000000000000e-04 0.000000000000000e+00 0.000000000000000e+00 
7.500000000000000e-04 0.000000000000000e+00 0.000000000000000e+00 
7.500000000000000e-04 0.000000000000000e+00 0.000000000000000e+00 
8.750000000000000e-04 0.000000000000000e+00 0.000000000000000e+00 
8.750000000000000e-04 0.000000000000000e+00 0.000000000000000e+00 
1.000000000000000e-03 0.000000000000000e+00 0.000000000000000e+00 
    </DataArray>
  </Points>

  <Cells>
    <DataArray type="Int32" Name="connectivity" format="ascii">
0 1 2 3 4 5 6 7 8 9 10 11 12 13 14 15     </DataArray>
    <DataArray type="Int32" Name="offsets" format="ascii">
2 4 6 8 10 12 14 16     </DataArray>
    <DataArray type="UInt8" Name="types" format="ascii">
3 3 3 3 3 3 3 3     </DataArray>
  </Cells>

  <PointData>
    <DataArray type="Float64" Name="phi_1" format="ascii">
9.601525288998162e+03 
9.633160476930669e+03 
9.633160476930669e+03 
9.726866301781798e+03 
9.726866301781798e+03 
9.879081577748322e+03 
9.879081577748322e+03 
1.008402235833534e+04 
1.008402235833534e+04 
1.033384410821986e+04 
1.033384410821986e+04 
1.061910292726513e+04 
1.061910292726513e+04 
1.092845440148641e+04 
1.092845440148641e+04 
1.125156268823250e+04 
    </DataArray>
    <DataArray type="Float64" Name="phiAnalytic_1" format="ascii">
1.003951316355870e+04 
1.006280235515132e+04 
1.006280235515132e+04 
1.013177493941139e+04 
1.013177493941139e+04 
1.024378033875093e+04 
1.024378033875093e+04 
1.039451424867316e+04 
1.039451424867316e+04 
1.057818404971759e+04 
1.057818404971759e+04 
1.078773141452165e+04 
1.078773141452165e+04 
1.101510355535304e+04 
1.101510355535304e+04 
1.125156268823250e+04 
    </DataArray>
    <DataArray type="Float64" Name="phi_2" format="ascii">
-1.753931044040002e+05 
-1.753849416613030e+05 
-1.753849416613030e+05 
-1.753609210390582e+05 
-1.753609210390582e+05 
-1.753223950777012e+05 
-1.753223950777012e+05 
-1.752714612806236e+05 
-1.752714612806236e+05 
-1.752107609875108e+05 
-1.752107609875108e+05 
-1.751432544113384e+05 
-1.751432544113384e+05 
-1.750720042651077e+05 
-1.750720042651077e+05 
-1.750000000000000e+05 
    </DataArray>
    <DataArray type="Float64" Name="phiAnalytic_2" format="ascii">
-1.752825318379367e+05 
-1.752767882489738e+05 
-1.752767882489738e+05 
-1.752598558594972e+05 
-1.752598558594972e+05 
-1.752326032113126e+05 
-1.752326032113126e+05 
-1.751963939463228e+05 
-1.751963939463228e+05 
-1.751529759898618e+05 
-1.751529759898618e+05 
-1.751043521275806e+05 
-1.751043521275806e+05 
-1.750526492330218e+05 
-1.750526492330218e+05 
-1.750000000000000e+05 
    </DataArray>
  </PointData>
  <CellData>
    <DataArray type="Float64" Name="Owner" format="ascii">
0.000000000000000e+00 
0.000000000000000e+00 
0.000000000000000e+00 
0.000000000000000e+00 
0.000000000000000e+00 
0.000000000000000e+00 
0.000000000000000e+00 
0.000000000000000e+00 
0.000000000000000e+00 
0.000000000000000e+00 
0.000000000000000e+00 
0.000000000000000e+00 
0.000000000000000e+00 
0.000000000000000e+00 
0.000000000000000e+00 
0.000000000000000e+00 
    </DataArray>
  </CellData>
</Piece>
</UnstructuredGrid>
</VTKFile>
