<?xml version="1.0" ?> 
<!-- 
# vtk DataFile Version 3.0
-->
<VTKFile type="UnstructuredGrid" version="0.1" compressor="vtkZLibDataCompressor" byte_order="LittleEndian">
<UnstructuredGrid>
<FieldData>
<DataArray type="Float32" Name="TIME" NumberOfTuples="1" format="ascii">744.04761905</DataArray>
</FieldData>
<Piece NumberOfPoints="16" NumberOfCells="8" >
  <Points>
    <DataArray type="Float64" NumberOfComponents="3" format="ascii">
0.000000000000000e+00 0.000000000000000e+00 0.000000000000000e+00 
1.250000000000000e-04 0.000000000000000e+00 0.000000000000000e+00 
1.250000000000000e-04 0.000000000000000e+00 0.000000000000000e+00 
2.500000000000000e-04 0.000000000000000e+00 0.000000000000000e+00 
2.500000000000000e-04 0.000000000000000e+00 0.000000000000000e+00 
3.750000000000000e-04 0.000000000000000e+00 0.000000000000000e+00 
3.750000000000000e-04 0.000000000000000e+00 0.000000000000000e+00 
5.000000000000000e-04 0.000000000000000e+00 0.000000000000000e+00 
5.000000000000000e-04 0.000000000000000e+00 0.000000000000000e+00 
6.250000000000000e-04 0.000000000000000e+00 0.000000000000000e+00 
6.250000000000000e-04 0.000000000000000e+00 0.000000000000000e+00 
7.500000000000000e-04 0.000000000000000e+00 0.000000000000000e+00 
7.500000000000000e-04 0.000000000000000e+00 0.000000000000000e+00 
8.750000000000000e-04 0.000000000000000e+00 0.000000000000000e+00 
8.750000000000000e-04 0.000000000000000e+00 0.000000000000000e+00 
1.000000000000000e-03 0.000000000000000e+00 0.000000000000000e+00 
    </DataArray>
  </Points>

  <Cells>
    <DataArray type="Int32" Name="connectivity" format="ascii">
0 1 2 3 4 5 6 7 8 9 10 11 12 13 14 15     </DataArray>
    <DataArray type="Int32" Name="offsets" format="ascii">
2 4 6 8 10 12 14 16     </DataArray>
    <DataArray type="UInt8" Name="types" format="ascii">
3 3 3 3 3 3 3 3     </DataArray>
  </Cells>

  <PointData>
    <DataArray type="Float64" Name="phi_1" format="ascii">
7.554856342994246e+03 
7.624755755215583e+03 
7.624755755215583e+03 
7.832105952317997e+03 
7.832105952317997e+03 
8.169831041865466e+03 
8.169831041865466e+03 
8.626178960523641e+03 
8.626178960523641e+03 
9.184593249742244e+03 
9.184593249742244e+03 
9.824826999685523e+03 
9.824826999685523e+03 
1.052035160718665e+04 
1.052035160718665e+04 
1.125156268823250e+04 
    </DataArray>
    <DataArray type="Float64" Name="phiAnalytic_1" format="ascii">
8.194095979508009e+03 
8.252843677489813e+03 
8.252843677489813e+03 
8.426829355336893e+03 
8.426829355336893e+03 
8.709367440153927e+03 
8.709367440153927e+03 
9.089600923121769e+03 
9.089600923121769e+03 
9.552918328272192e+03 
9.552918328272192e+03 
1.008151499291898e+04 
1.008151499291898e+04 
1.065507716771070e+04 
1.065507716771070e+04 
1.125156268823250e+04 
    </DataArray>
    <DataArray type="Float64" Name="phi_2" format="ascii">
-1.759873601643040e+05 
-1.759644610790514e+05 
-1.759644610790514e+05 
-1.758977664373351e+05 
-1.758977664373351e+05 
-1.757928744004003e+05 
-1.757928744004003e+05 
-1.756579174782857e+05 
-1.756579174782857e+05 
-1.755022405459206e+05 
-1.755022405459206e+05 
-1.753352125894117e+05 
-1.753352125894117e+05 
-1.751653665729439e+05 
-1.751653665729439e+05 
-1.750000000000000e+05 
    </DataArray>
    <DataArray type="Float64" Name="phiAnalytic_2" format="ascii">
-1.757860165125259e+05 
-1.757683079858072e+05 
-1.757683079858072e+05 
-1.757165929835492e+05 
-1.757165929835492e+05 
-1.756348450573812e+05 
-1.756348450573812e+05 
-1.755289205544674e+05 
-1.755289205544674e+05 
-1.754056843586116e+05 
-1.754056843586116e+05 
-1.752721829544433e+05 
-1.752721829544433e+05 
-1.751350225571977e+05 
-1.751350225571977e+05 
-1.750000000000000e+05 
    </DataArray>
  </PointData>
  <CellData>
    <DataArray type="Float64" Name="Owner" format="ascii">
0.000000000000000e+00 
0.000000000000000e+00 
0.000000000000000e+00 
0.000000000000000e+00 
0.000000000000000e+00 
0.000000000000000e+00 
0.000000000000000e+00 
0.000000000000000e+00 
0.000000000000000e+00 
0.000000000000000e+00 
0.000000000000000e+00 
0.000000000000000e+00 
0.000000000000000e+00 
0.000000000000000e+00 
0.000000000000000e+00 
0.000000000000000e+00 
    </DataArray>
  </CellData>
</Piece>
</UnstructuredGrid>
</VTKFile>
