<?xml version="1.0" ?> 
<!-- 
# vtk DataFile Version 3.0
-->
<VTKFile type="UnstructuredGrid" version="0.1" compressor="vtkZLibDataCompressor" byte_order="LittleEndian">
<UnstructuredGrid>
<FieldData>
<DataArray type="Float32" Name="TIME" NumberOfTuples="1" format="ascii">595.23809524</DataArray>
</FieldData>
<Piece NumberOfPoints="16" NumberOfCells="8" >
  <Points>
    <DataArray type="Float64" NumberOfComponents="3" format="ascii">
0.000000000000000e+00 0.000000000000000e+00 0.000000000000000e+00 
1.250000000000000e-04 0.000000000000000e+00 0.000000000000000e+00 
1.250000000000000e-04 0.000000000000000e+00 0.000000000000000e+00 
2.500000000000000e-04 0.000000000000000e+00 0.000000000000000e+00 
2.500000000000000e-04 0.000000000000000e+00 0.000000000000000e+00 
3.750000000000000e-04 0.000000000000000e+00 0.000000000000000e+00 
3.750000000000000e-04 0.000000000000000e+00 0.000000000000000e+00 
5.000000000000000e-04 0.000000000000000e+00 0.000000000000000e+00 
5.000000000000000e-04 0.000000000000000e+00 0.000000000000000e+00 
6.250000000000000e-04 0.000000000000000e+00 0.000000000000000e+00 
6.250000000000000e-04 0.000000000000000e+00 0.000000000000000e+00 
7.500000000000000e-04 0.000000000000000e+00 0.000000000000000e+00 
7.500000000000000e-04 0.000000000000000e+00 0.000000000000000e+00 
8.750000000000000e-04 0.000000000000000e+00 0.000000000000000e+00 
8.750000000000000e-04 0.000000000000000e+00 0.000000000000000e+00 
1.000000000000000e-03 0.000000000000000e+00 0.000000000000000e+00 
    </DataArray>
  </Points>

  <Cells>
    <DataArray type="Int32" Name="connectivity" format="ascii">
0 1 2 3 4 5 6 7 8 9 10 11 12 13 14 15     </DataArray>
    <DataArray type="Int32" Name="offsets" format="ascii">
2 4 6 8 10 12 14 16     </DataArray>
    <DataArray type="UInt8" Name="types" format="ascii">
3 3 3 3 3 3 3 3     </DataArray>
  </Cells>

  <PointData>
    <DataArray type="Float64" Name="phi_1" format="ascii">
6.426629525382309e+03 
6.515743327967958e+03 
6.515743327967958e+03 
6.780742422865634e+03 
6.780742422865634e+03 
7.214351585639091e+03 
7.214351585639091e+03 
7.803889732569831e+03 
7.803889732569831e+03 
8.530233312632519e+03 
8.530233312632519e+03 
9.368717950237235e+03 
9.368717950237235e+03 
1.028389106027784e+04 
1.028389106027784e+04 
1.125156268823250e+04 
    </DataArray>
    <DataArray type="Float64" Name="phiAnalytic_1" format="ascii">
7.089561312257831e+03 
7.169522286981086e+03 
7.169522286981086e+03 
7.406335967232343e+03 
7.406335967232343e+03 
7.790911353284475e+03 
7.790911353284475e+03 
8.308481810042707e+03 
8.308481810042707e+03 
8.939168367293189e+03 
8.939168367293189e+03 
9.658739959087692e+03 
9.658739959087692e+03 
1.043954263324055e+04 
1.043954263324055e+04 
1.125156268823250e+04 
    </DataArray>
    <DataArray type="Float64" Name="phi_2" format="ascii">
-1.763882922945698e+05 
-1.763540002021256e+05 
-1.763540002021256e+05 
-1.762547784228878e+05 
-1.762547784228878e+05 
-1.761006234005377e+05 
-1.761006234005377e+05 
-1.759054859688157e+05 
-1.759054859688157e+05 
-1.756845683445122e+05 
-1.756845683445122e+05 
-1.754522307040881e+05 
-1.754522307040881e+05 
-1.752207481065796e+05 
-1.752207481065796e+05 
-1.750000000000000e+05 
    </DataArray>
    <DataArray type="Float64" Name="phiAnalytic_2" format="ascii">
-1.761449257908696e+05 
-1.761171244433680e+05 
-1.761171244433680e+05 
-1.760365707054918e+05 
-1.760365707054918e+05 
-1.759110879311248e+05 
-1.759110879311248e+05 
-1.757516526299748e+05 
-1.757516526299748e+05 
-1.755702881865010e+05 
-1.755702881865010e+05 
-1.753783764262446e+05 
-1.753783764262446e+05 
-1.751856790486785e+05 
-1.751856790486785e+05 
-1.750000000000000e+05 
    </DataArray>
  </PointData>
  <CellData>
    <DataArray type="Float64" Name="Owner" format="ascii">
0.000000000000000e+00 
0.000000000000000e+00 
0.000000000000000e+00 
0.000000000000000e+00 
0.000000000000000e+00 
0.000000000000000e+00 
0.000000000000000e+00 
0.000000000000000e+00 
0.000000000000000e+00 
0.000000000000000e+00 
0.000000000000000e+00 
0.000000000000000e+00 
0.000000000000000e+00 
0.000000000000000e+00 
0.000000000000000e+00 
0.000000000000000e+00 
    </DataArray>
  </CellData>
</Piece>
</UnstructuredGrid>
</VTKFile>
