<?xml version="1.0" ?> 
<!-- 
# vtk DataFile Version 3.0
-->
<VTKFile type="UnstructuredGrid" version="0.1" compressor="vtkZLibDataCompressor" byte_order="LittleEndian">
<UnstructuredGrid>
<FieldData>
<DataArray type="Float32" Name="TIME" NumberOfTuples="1" format="ascii">297.61904762</DataArray>
</FieldData>
<Piece NumberOfPoints="16" NumberOfCells="8" >
  <Points>
    <DataArray type="Float64" NumberOfComponents="3" format="ascii">
0.000000000000000e+00 0.000000000000000e+00 0.000000000000000e+00
1.250000000000000e+00 0.000000000000000e+00 0.000000000000000e+00
1.250000000000000e+00 0.000000000000000e+00 0.000000000000000e+00
2.500000000000000e+00 0.000000000000000e+00 0.000000000000000e+00
2.500000000000000e+00 0.000000000000000e+00 0.000000000000000e+00
3.750000000000000e+00 0.000000000000000e+00 0.000000000000000e+00
3.750000000000000e+00 0.000000000000000e+00 0.000000000000000e+00
5.000000000000000e+00 0.000000000000000e+00 0.000000000000000e+00
5.000000000000000e+00 0.000000000000000e+00 0.000000000000000e+00
6.250000000000000e+00 0.000000000000000e+00 0.000000000000000e+00
6.250000000000000e+00 0.000000000000000e+00 0.000000000000000e+00
7.500000000000000e+00 0.000000000000000e+00 0.000000000000000e+00
7.500000000000000e+00 0.000000000000000e+00 0.000000000000000e+00
8.750000000000000e+00 0.000000000000000e+00 0.000000000000000e+00
8.750000000000000e+00 0.000000000000000e+00 0.000000000000000e+00
1.000000000000000e+01 0.000000000000000e+00 0.000000000000000e+00
    </DataArray>
  </Points>

  <Cells>
    <DataArray type="Int32" Name="connectivity" format="ascii">
0 1 2 3 4 5 6 7 8 9 10 11 12 13 14 15     </DataArray>
    <DataArray type="Int32" Name="offsets" format="ascii">
2 4 6 8 10 12 14 16     </DataArray>
    <DataArray type="UInt8" Name="types" format="ascii">
3 3 3 3 3 3 3 3     </DataArray>
  </Cells>

  <PointData>
    <DataArray type="Float64" Name="phi_1" format="ascii">
0.000000000000000e+00
1.250000000000000e+00
1.250000000000000e+00
2.500000000000000e+00
2.500000000000000e+00
3.750000000000000e+00
3.750000000000000e+00
5.000000000000000e+00
5.000000000000000e+00
6.250000000000000e+00
6.250000000000000e+00
7.500000000000000e+00
7.500000000000000e+00
8.750000000000000e+00
8.750000000000000e+00
1.000000000000000e+01 
    </DataArray>
    <DataArray type="Float64" Name="phiAnalytic_1" format="ascii">
3.557388243736528e+03 
3.702469116402026e+03 
3.702469116402026e+03 
4.133066690185172e+03 
4.133066690185172e+03 
4.835110880012724e+03 
4.835110880012724e+03 
5.784812437121288e+03 
5.784812437121288e+03 
6.948502122121750e+03 
6.948502122121750e+03 
8.282971563234287e+03 
8.282971563234287e+03 
9.736623995826256e+03 
9.736623995826256e+03 
1.125156268823250e+04 
    </DataArray>
    <DataArray type="Float64" Name="phi_2" format="ascii">
0.000000000000000e+00
1.562500000000000e+00
1.562500000000000e+00
6.250000000000000e+00
6.250000000000000e+00
1.406250000000000e+01
1.406250000000000e+01
2.500000000000000e+01
2.500000000000000e+01
3.906250000000000e+01
3.906250000000000e+01
5.625000000000000e+01
5.625000000000000e+01
7.656250000000000e+01
7.656250000000000e+01
1.000000000000000e+02
    </DataArray>
    <DataArray type="Float64" Name="phiAnalytic_2" format="ascii">
-1.778543115800552e+05 
-1.777552250262463e+05 
-1.777552250262463e+05 
-1.774825059795248e+05 
-1.774825059795248e+05 
-1.770936179570915e+05 
-1.770936179570915e+05 
-1.766490866765946e+05 
-1.766490866765946e+05 
-1.761947434862200e+05 
-1.761947434862200e+05 
-1.757592752698296e+05 
-1.757592752698296e+05 
-1.753584684238978e+05 
-1.753584684238978e+05 
-1.750000000000000e+05 
    </DataArray>
  </PointData>
  <CellData>
    <DataArray type="Float64" Name="Owner" format="ascii">
0.000000000000000e+00 
0.000000000000000e+00 
0.000000000000000e+00 
0.000000000000000e+00 
0.000000000000000e+00 
0.000000000000000e+00 
0.000000000000000e+00 
0.000000000000000e+00 
0.000000000000000e+00 
0.000000000000000e+00 
0.000000000000000e+00 
0.000000000000000e+00 
0.000000000000000e+00 
0.000000000000000e+00 
0.000000000000000e+00 
0.000000000000000e+00 
    </DataArray>
  </CellData>
</Piece>
</UnstructuredGrid>
</VTKFile>
