<?xml version="1.0" ?> 
<!-- 
# vtk DataFile Version 3.0
-->
<VTKFile type="UnstructuredGrid" version="0.1" compressor="vtkZLibDataCompressor" byte_order="LittleEndian">
<UnstructuredGrid>
<FieldData>
<DataArray type="Float32" Name="TIME" NumberOfTuples="1" format="ascii">1041.66666667</DataArray>
</FieldData>
<Piece NumberOfPoints="16" NumberOfCells="8" >
  <Points>
    <DataArray type="Float64" NumberOfComponents="3" format="ascii">
0.000000000000000e+00 0.000000000000000e+00 0.000000000000000e+00 
1.250000000000000e-04 0.000000000000000e+00 0.000000000000000e+00 
1.250000000000000e-04 0.000000000000000e+00 0.000000000000000e+00 
2.500000000000000e-04 0.000000000000000e+00 0.000000000000000e+00 
2.500000000000000e-04 0.000000000000000e+00 0.000000000000000e+00 
3.750000000000000e-04 0.000000000000000e+00 0.000000000000000e+00 
3.750000000000000e-04 0.000000000000000e+00 0.000000000000000e+00 
5.000000000000000e-04 0.000000000000000e+00 0.000000000000000e+00 
5.000000000000000e-04 0.000000000000000e+00 0.000000000000000e+00 
6.250000000000000e-04 0.000000000000000e+00 0.000000000000000e+00 
6.250000000000000e-04 0.000000000000000e+00 0.000000000000000e+00 
7.500000000000000e-04 0.000000000000000e+00 0.000000000000000e+00 
7.500000000000000e-04 0.000000000000000e+00 0.000000000000000e+00 
8.750000000000000e-04 0.000000000000000e+00 0.000000000000000e+00 
8.750000000000000e-04 0.000000000000000e+00 0.000000000000000e+00 
1.000000000000000e-03 0.000000000000000e+00 0.000000000000000e+00 
    </DataArray>
  </Points>

  <Cells>
    <DataArray type="Int32" Name="connectivity" format="ascii">
0 1 2 3 4 5 6 7 8 9 10 11 12 13 14 15     </DataArray>
    <DataArray type="Int32" Name="offsets" format="ascii">
2 4 6 8 10 12 14 16     </DataArray>
    <DataArray type="UInt8" Name="types" format="ascii">
3 3 3 3 3 3 3 3     </DataArray>
  </Cells>

  <PointData>
    <DataArray type="Float64" Name="phi_1" format="ascii">
9.091569364147403e+03 
9.132918242557931e+03 
9.132918242557931e+03 
9.255415250214799e+03 
9.255415250214799e+03 
9.454453205638625e+03 
9.454453205638625e+03 
9.722536068778896e+03 
9.722536068778896e+03 
1.004945156471952e+04 
1.004945156471952e+04 
1.042292085486388e+04 
1.042292085486388e+04 
1.082793865458607e+04 
1.082793865458607e+04 
1.125156268823250e+04 
    </DataArray>
    <DataArray type="Float64" Name="phiAnalytic_1" format="ascii">
9.601624415635026e+03 
9.633327514304357e+03 
9.633327514304357e+03 
9.727218478882995e+03 
9.727218478882995e+03 
9.879689134582088e+03 
9.879689134582088e+03 
1.008488012260322e+04 
1.008488012260322e+04 
1.033490607100203e+04 
1.033490607100203e+04 
1.062015862421570e+04 
1.062015862421570e+04 
1.092967568630088e+04 
1.092967568630088e+04 
1.125156268823250e+04 
    </DataArray>
    <DataArray type="Float64" Name="phi_2" format="ascii">
-1.755283852086838e+05 
-1.755171199921498e+05 
-1.755171199921498e+05 
-1.754840469389778e+05 
-1.754840469389778e+05 
-1.754312394865433e+05 
-1.754312394865433e+05 
-1.753618636607543e+05 
-1.753618636607543e+05 
-1.752798192786997e+05 
-1.752798192786997e+05 
-1.751893588381503e+05 
-1.751893588381503e+05 
-1.750947446046284e+05 
-1.750947446046284e+05 
-1.750000000000000e+05 
    </DataArray>
    <DataArray type="Float64" Name="phiAnalytic_2" format="ascii">
-1.753930780707487e+05 
-1.753849068709497e+05 
-1.753849068709497e+05 
-1.753608641046982e+05 
-1.753608641046982e+05 
-1.753223108764512e+05 
-1.753223108764512e+05 
-1.752713556823637e+05 
-1.752713556823637e+05 
-1.752106498487364e+05 
-1.752106498487364e+05 
-1.751431594193343e+05 
-1.751431594193343e+05 
-1.750719487029187e+05 
-1.750719487029187e+05 
-1.750000000000000e+05 
    </DataArray>
  </PointData>
  <CellData>
    <DataArray type="Float64" Name="Owner" format="ascii">
0.000000000000000e+00 
0.000000000000000e+00 
0.000000000000000e+00 
0.000000000000000e+00 
0.000000000000000e+00 
0.000000000000000e+00 
0.000000000000000e+00 
0.000000000000000e+00 
0.000000000000000e+00 
0.000000000000000e+00 
0.000000000000000e+00 
0.000000000000000e+00 
0.000000000000000e+00 
0.000000000000000e+00 
0.000000000000000e+00 
0.000000000000000e+00 
    </DataArray>
  </CellData>
</Piece>
</UnstructuredGrid>
</VTKFile>
