<?xml version="1.0" ?> 
<!-- 
# vtk DataFile Version 3.0
-->
<VTKFile type="UnstructuredGrid" version="0.1" compressor="vtkZLibDataCompressor" byte_order="LittleEndian">
<UnstructuredGrid>
<FieldData>
<DataArray type="Float32" Name="TIME" NumberOfTuples="1" format="ascii">446.42857143</DataArray>
</FieldData>
<Piece NumberOfPoints="16" NumberOfCells="8" >
  <Points>
    <DataArray type="Float64" NumberOfComponents="3" format="ascii">
0.000000000000000e+00 0.000000000000000e+00 0.000000000000000e+00 
1.250000000000000e-04 0.000000000000000e+00 0.000000000000000e+00 
1.250000000000000e-04 0.000000000000000e+00 0.000000000000000e+00 
2.500000000000000e-04 0.000000000000000e+00 0.000000000000000e+00 
2.500000000000000e-04 0.000000000000000e+00 0.000000000000000e+00 
3.750000000000000e-04 0.000000000000000e+00 0.000000000000000e+00 
3.750000000000000e-04 0.000000000000000e+00 0.000000000000000e+00 
5.000000000000000e-04 0.000000000000000e+00 0.000000000000000e+00 
5.000000000000000e-04 0.000000000000000e+00 0.000000000000000e+00 
6.250000000000000e-04 0.000000000000000e+00 0.000000000000000e+00 
6.250000000000000e-04 0.000000000000000e+00 0.000000000000000e+00 
7.500000000000000e-04 0.000000000000000e+00 0.000000000000000e+00 
7.500000000000000e-04 0.000000000000000e+00 0.000000000000000e+00 
8.750000000000000e-04 0.000000000000000e+00 0.000000000000000e+00 
8.750000000000000e-04 0.000000000000000e+00 0.000000000000000e+00 
1.000000000000000e-03 0.000000000000000e+00 0.000000000000000e+00 
    </DataArray>
  </Points>

  <Cells>
    <DataArray type="Int32" Name="connectivity" format="ascii">
0 1 2 3 4 5 6 7 8 9 10 11 12 13 14 15     </DataArray>
    <DataArray type="Int32" Name="offsets" format="ascii">
2 4 6 8 10 12 14 16     </DataArray>
    <DataArray type="UInt8" Name="types" format="ascii">
3 3 3 3 3 3 3 3     </DataArray>
  </Cells>

  <PointData>
    <DataArray type="Float64" Name="phi_1" format="ascii">
4.987808511969666e+03 
5.096296828955999e+03 
5.096296828955999e+03 
5.420926824610698e+03 
5.420926824610698e+03 
5.958425028519025e+03 
5.958425028519025e+03 
6.701198368892847e+03 
6.701198368892847e+03 
7.633723176619692e+03 
7.633723176619692e+03 
8.731322323320612e+03 
8.731322323320612e+03 
9.947825861729289e+03 
9.947825861729289e+03 
1.125156268823250e+04 
    </DataArray>
    <DataArray type="Float64" Name="phiAnalytic_1" format="ascii">
5.586969308879824e+03 
5.695640891640517e+03 
5.695640891640517e+03 
6.017537423183466e+03 
6.017537423183466e+03 
6.540442974272657e+03 
6.540442974272657e+03 
7.244461321195041e+03 
7.244461321195041e+03 
8.102713557958816e+03 
8.102713557958816e+03 
9.082311672963378e+03 
9.082311672963378e+03 
1.014559068564744e+04 
1.014559068564744e+04 
1.125156268823250e+04 
    </DataArray>
    <DataArray type="Float64" Name="phi_2" format="ascii">
-1.770165761026880e+05 
-1.769628573849334e+05 
-1.769628573849334e+05 
-1.768088353493856e+05 
-1.768088353493856e+05 
-1.765733854189565e+05 
-1.765733854189565e+05 
-1.762813360767536e+05 
-1.762813360767536e+05 
-1.759578570806590e+05 
-1.759578570806590e+05 
-1.756251430215371e+05 
-1.756251430215371e+05 
-1.753011597561708e+05 
-1.753011597561708e+05 
-1.750000000000000e+05 
    </DataArray>
    <DataArray type="Float64" Name="phiAnalytic_2" format="ascii">
-1.767353470050120e+05 
-1.766875946638795e+05 
-1.766875946638795e+05 
-1.765513166676125e+05 
-1.765513166676125e+05 
-1.763447646376191e+05 
-1.763447646376191e+05 
-1.760913491978661e+05 
-1.760913491978661e+05 
-1.758138161705638e+05 
-1.758138161705638e+05 
-1.755309091985786e+05 
-1.755309091985786e+05 
-1.752564780300904e+05 
-1.752564780300904e+05 
-1.750000000000000e+05 
    </DataArray>
  </PointData>
  <CellData>
    <DataArray type="Float64" Name="Owner" format="ascii">
0.000000000000000e+00 
0.000000000000000e+00 
0.000000000000000e+00 
0.000000000000000e+00 
0.000000000000000e+00 
0.000000000000000e+00 
0.000000000000000e+00 
0.000000000000000e+00 
0.000000000000000e+00 
0.000000000000000e+00 
0.000000000000000e+00 
0.000000000000000e+00 
0.000000000000000e+00 
0.000000000000000e+00 
0.000000000000000e+00 
0.000000000000000e+00 
    </DataArray>
  </CellData>
</Piece>
</UnstructuredGrid>
</VTKFile>
