<?xml version="1.0" ?> 
<!-- 
# vtk DataFile Version 3.0
-->
<VTKFile type="UnstructuredGrid" version="0.1" compressor="vtkZLibDataCompressor" byte_order="LittleEndian">
<UnstructuredGrid>
<FieldData>
<DataArray type="Float32" Name="TIME" NumberOfTuples="1" format="ascii">148.80952381</DataArray>
</FieldData>
<Piece NumberOfPoints="32" NumberOfCells="16" >
  <Points>
    <DataArray type="Float64" NumberOfComponents="3" format="ascii">
0.000000000000000e+00 0.000000000000000e+00 0.000000000000000e+00 
6.250000000000000e-05 0.000000000000000e+00 0.000000000000000e+00 
6.250000000000000e-05 0.000000000000000e+00 0.000000000000000e+00 
1.250000000000000e-04 0.000000000000000e+00 0.000000000000000e+00 
1.250000000000000e-04 0.000000000000000e+00 0.000000000000000e+00 
1.875000000000000e-04 0.000000000000000e+00 0.000000000000000e+00 
1.875000000000000e-04 0.000000000000000e+00 0.000000000000000e+00 
2.500000000000000e-04 0.000000000000000e+00 0.000000000000000e+00 
2.500000000000000e-04 0.000000000000000e+00 0.000000000000000e+00 
3.125000000000000e-04 0.000000000000000e+00 0.000000000000000e+00 
3.125000000000000e-04 0.000000000000000e+00 0.000000000000000e+00 
3.750000000000000e-04 0.000000000000000e+00 0.000000000000000e+00 
3.750000000000000e-04 0.000000000000000e+00 0.000000000000000e+00 
4.375000000000000e-04 0.000000000000000e+00 0.000000000000000e+00 
4.375000000000000e-04 0.000000000000000e+00 0.000000000000000e+00 
5.000000000000000e-04 0.000000000000000e+00 0.000000000000000e+00 
5.000000000000000e-04 0.000000000000000e+00 0.000000000000000e+00 
5.625000000000001e-04 0.000000000000000e+00 0.000000000000000e+00 
5.625000000000001e-04 0.000000000000000e+00 0.000000000000000e+00 
6.250000000000000e-04 0.000000000000000e+00 0.000000000000000e+00 
6.250000000000000e-04 0.000000000000000e+00 0.000000000000000e+00 
6.875000000000000e-04 0.000000000000000e+00 0.000000000000000e+00 
6.875000000000000e-04 0.000000000000000e+00 0.000000000000000e+00 
7.500000000000000e-04 0.000000000000000e+00 0.000000000000000e+00 
7.500000000000000e-04 0.000000000000000e+00 0.000000000000000e+00 
8.125000000000001e-04 0.000000000000000e+00 0.000000000000000e+00 
8.125000000000001e-04 0.000000000000000e+00 0.000000000000000e+00 
8.750000000000000e-04 0.000000000000000e+00 0.000000000000000e+00 
8.750000000000000e-04 0.000000000000000e+00 0.000000000000000e+00 
9.375000000000000e-04 0.000000000000000e+00 0.000000000000000e+00 
9.375000000000000e-04 0.000000000000000e+00 0.000000000000000e+00 
1.000000000000000e-03 0.000000000000000e+00 0.000000000000000e+00 
    </DataArray>
  </Points>

  <Cells>
    <DataArray type="Int32" Name="connectivity" format="ascii">
0 1 2 3 4 5 6 7 8 9 10 11 12 13 14 15 16 17 18 19 20 21 22 23 24 25 26 27 28 29 30 31     </DataArray>
    <DataArray type="Int32" Name="offsets" format="ascii">
2 4 6 8 10 12 14 16 18 20 22 24 26 28 30 32     </DataArray>
    <DataArray type="UInt8" Name="types" format="ascii">
3 3 3 3 3 3 3 3 3 3 3 3 3 3 3 3     </DataArray>
  </Cells>

  <PointData>
    <DataArray type="Float64" Name="phi_1" format="ascii">
1.265543389810048e+03 
1.291287391778620e+03 
1.291287391778620e+03 
1.369338205415309e+03 
1.369338205415309e+03 
1.502142662974862e+03 
1.502142662974862e+03 
1.693749686713624e+03 
1.693749686713624e+03 
1.949769790042004e+03 
1.949769790042004e+03 
2.277308708062706e+03 
2.277308708062706e+03 
2.684844888262763e+03 
2.684844888262763e+03 
3.182003793605435e+03 
3.182003793605435e+03 
3.779159261577638e+03 
3.779159261577638e+03 
4.486785659918090e+03 
4.486785659918090e+03 
5.314378302016595e+03 
5.314378302016595e+03 
6.269004424421460e+03 
6.269004424421460e+03 
7.352283606940314e+03 
7.352283606940314e+03 
8.559375098381041e+03 
8.559375098381041e+03 
9.863649629756974e+03 
9.863649629756974e+03 
1.125156268823250e+04 
    </DataArray>
    <DataArray type="Float64" Name="phiAnalytic_1" format="ascii">
1.047982948847311e+03 
1.085910287752999e+03 
1.085910287752999e+03 
1.200270351328393e+03 
1.200270351328393e+03 
1.392715595216953e+03 
1.392715595216953e+03 
1.665733966569835e+03 
1.665733966569835e+03 
2.022270929434228e+03 
2.022270929434228e+03 
2.465241884590865e+03 
2.465241884590865e+03 
2.996974304090141e+03 
2.996974304090141e+03 
3.618626567107274e+03 
3.618626567107274e+03 
4.329635060743798e+03 
4.329635060743798e+03 
5.127241743128277e+03 
5.127241743128277e+03 
6.006150414963135e+03 
6.006150414963135e+03 
6.958351171687128e+03 
6.958351171687128e+03 
7.973139233627629e+03 
7.973139233627629e+03 
9.037337532569780e+03 
9.037337532569780e+03 
1.013571362401514e+04 
1.013571362401514e+04 
1.125156268823250e+04 
    </DataArray>
    <DataArray type="Float64" Name="phi_2" format="ascii">
-1.804162607380968e+05 
-1.803660075445483e+05 
-1.803660075445483e+05 
-1.802196389833101e+05 
-1.802196389833101e+05 
-1.799890036927256e+05 
-1.799890036927256e+05 
-1.796902207658120e+05 
-1.796902207658120e+05 
-1.793402715317257e+05 
-1.793402715317257e+05 
-1.789546021546597e+05 
-1.789546021546597e+05 
-1.785460357280285e+05 
-1.785460357280285e+05 
-1.781246680188101e+05 
-1.781246680188101e+05 
-1.776982814009147e+05 
-1.776982814009147e+05 
-1.772729337783404e+05 
-1.772729337783404e+05 
-1.768535413955530e+05 
-1.768535413955530e+05 
-1.764444012701899e+05 
-1.764444012701899e+05 
-1.760496363941782e+05 
-1.760496363941782e+05 
-1.756736782900920e+05 
-1.756736782900920e+05 
-1.753216038931022e+05 
-1.753216038931022e+05 
-1.750000000000000e+05 
    </DataArray>
    <DataArray type="Float64" Name="phiAnalytic_2" format="ascii">
-1.808838234472917e+05 
-1.807956982193199e+05 
-1.807956982193199e+05 
-1.805474984898697e+05 
-1.805474984898697e+05 
-1.801788765669796e+05 
-1.801788765669796e+05 
-1.797351423165483e+05 
-1.797351423165483e+05 
-1.792543623249712e+05 
-1.792543623249712e+05 
-1.787633855313496e+05 
-1.787633855313496e+05 
-1.782792392321964e+05 
-1.782792392321964e+05 
-1.778120033031926e+05 
-1.778120033031926e+05 
-1.773673311564415e+05 
-1.773673311564415e+05 
-1.769482010556415e+05 
-1.769482010556415e+05 
-1.765560117898224e+05 
-1.765560117898224e+05 
-1.761912324092358e+05 
-1.761912324092358e+05 
-1.758537765098406e+05 
-1.758537765098406e+05 
-1.755432144022705e+05 
-1.755432144022705e+05 
-1.752588924163239e+05 
-1.752588924163239e+05 
-1.750000000000000e+05 
    </DataArray>
  </PointData>
  <CellData>
    <DataArray type="Float64" Name="Owner" format="ascii">
0.000000000000000e+00 
0.000000000000000e+00 
0.000000000000000e+00 
0.000000000000000e+00 
0.000000000000000e+00 
0.000000000000000e+00 
0.000000000000000e+00 
0.000000000000000e+00 
0.000000000000000e+00 
0.000000000000000e+00 
0.000000000000000e+00 
0.000000000000000e+00 
0.000000000000000e+00 
0.000000000000000e+00 
0.000000000000000e+00 
0.000000000000000e+00 
0.000000000000000e+00 
0.000000000000000e+00 
0.000000000000000e+00 
0.000000000000000e+00 
0.000000000000000e+00 
0.000000000000000e+00 
0.000000000000000e+00 
0.000000000000000e+00 
0.000000000000000e+00 
0.000000000000000e+00 
0.000000000000000e+00 
0.000000000000000e+00 
0.000000000000000e+00 
0.000000000000000e+00 
0.000000000000000e+00 
0.000000000000000e+00 
    </DataArray>
  </CellData>
</Piece>
</UnstructuredGrid>
</VTKFile>
