<?xml version="1.0" ?> 
<!-- 
# vtk DataFile Version 3.0
-->
<VTKFile type="UnstructuredGrid" version="0.1" compressor="vtkZLibDataCompressor" byte_order="LittleEndian">
<UnstructuredGrid>
<FieldData>
<DataArray type="Float32" Name="TIME" NumberOfTuples="1" format="ascii">669.642857145</DataArray>
</FieldData>
<Piece NumberOfPoints="32" NumberOfCells="16" >
  <Points>
    <DataArray type="Float64" NumberOfComponents="3" format="ascii">
0.000000000000000e+00 0.000000000000000e+00 0.000000000000000e+00 
6.250000000000000e-05 0.000000000000000e+00 0.000000000000000e+00 
6.250000000000000e-05 0.000000000000000e+00 0.000000000000000e+00 
1.250000000000000e-04 0.000000000000000e+00 0.000000000000000e+00 
1.250000000000000e-04 0.000000000000000e+00 0.000000000000000e+00 
1.875000000000000e-04 0.000000000000000e+00 0.000000000000000e+00 
1.875000000000000e-04 0.000000000000000e+00 0.000000000000000e+00 
2.500000000000000e-04 0.000000000000000e+00 0.000000000000000e+00 
2.500000000000000e-04 0.000000000000000e+00 0.000000000000000e+00 
3.125000000000000e-04 0.000000000000000e+00 0.000000000000000e+00 
3.125000000000000e-04 0.000000000000000e+00 0.000000000000000e+00 
3.750000000000000e-04 0.000000000000000e+00 0.000000000000000e+00 
3.750000000000000e-04 0.000000000000000e+00 0.000000000000000e+00 
4.375000000000000e-04 0.000000000000000e+00 0.000000000000000e+00 
4.375000000000000e-04 0.000000000000000e+00 0.000000000000000e+00 
5.000000000000000e-04 0.000000000000000e+00 0.000000000000000e+00 
5.000000000000000e-04 0.000000000000000e+00 0.000000000000000e+00 
5.625000000000001e-04 0.000000000000000e+00 0.000000000000000e+00 
5.625000000000001e-04 0.000000000000000e+00 0.000000000000000e+00 
6.250000000000000e-04 0.000000000000000e+00 0.000000000000000e+00 
6.250000000000000e-04 0.000000000000000e+00 0.000000000000000e+00 
6.875000000000000e-04 0.000000000000000e+00 0.000000000000000e+00 
6.875000000000000e-04 0.000000000000000e+00 0.000000000000000e+00 
7.500000000000000e-04 0.000000000000000e+00 0.000000000000000e+00 
7.500000000000000e-04 0.000000000000000e+00 0.000000000000000e+00 
8.125000000000001e-04 0.000000000000000e+00 0.000000000000000e+00 
8.125000000000001e-04 0.000000000000000e+00 0.000000000000000e+00 
8.750000000000000e-04 0.000000000000000e+00 0.000000000000000e+00 
8.750000000000000e-04 0.000000000000000e+00 0.000000000000000e+00 
9.375000000000000e-04 0.000000000000000e+00 0.000000000000000e+00 
9.375000000000000e-04 0.000000000000000e+00 0.000000000000000e+00 
1.000000000000000e-03 0.000000000000000e+00 0.000000000000000e+00 
    </DataArray>
  </Points>

  <Cells>
    <DataArray type="Int32" Name="connectivity" format="ascii">
0 1 2 3 4 5 6 7 8 9 10 11 12 13 14 15 16 17 18 19 20 21 22 23 24 25 26 27 28 29 30 31     </DataArray>
    <DataArray type="Int32" Name="offsets" format="ascii">
2 4 6 8 10 12 14 16 18 20 22 24 26 28 30 32     </DataArray>
    <DataArray type="UInt8" Name="types" format="ascii">
3 3 3 3 3 3 3 3 3 3 3 3 3 3 3 3     </DataArray>
  </Cells>

  <PointData>
    <DataArray type="Float64" Name="phi_1" format="ascii">
7.328439161966428e+03 
7.347236102814736e+03 
7.347236102814736e+03 
7.403453388855382e+03 
7.403453388855382e+03 
7.496571428474264e+03 
7.496571428474264e+03 
7.625727685583688e+03 
7.625727685583688e+03 
7.789722038900652e+03 
7.789722038900652e+03 
7.987024632272873e+03 
7.987024632272873e+03 
8.215786451566561e+03 
8.215786451566561e+03 
8.473853023991172e+03 
8.473853023991172e+03 
8.758780971492515e+03 
8.758780971492515e+03 
9.067859435505710e+03 
9.067859435505710e+03 
9.398129354392058e+03 
9.398129354392058e+03 
9.746427404044625e+03 
9.746427404044625e+03 
1.010935237373397e+04 
1.010935237373397e+04 
1.048354154932493e+04 
1.048354154932493e+04 
1.086478233828730e+04 
1.086478233828730e+04 
1.125156268823250e+04 
    </DataArray>
    <DataArray type="Float64" Name="phiAnalytic_1" format="ascii">
7.684310122104134e+03 
7.701486733258450e+03 
7.701486733258450e+03 
7.752851205556380e+03 
7.752851205556380e+03 
7.837909042941121e+03 
7.837909042941121e+03 
7.955841361928352e+03 
7.955841361928352e+03 
8.105512754650747e+03 
8.105512754650747e+03 
8.285482193759630e+03 
8.285482193759630e+03 
8.494016876721107e+03 
8.494016876721107e+03 
8.729108879070836e+03 
8.729108879070836e+03 
8.988494459225591e+03 
8.988494459225591e+03 
9.269675831743059e+03 
9.269675831743059e+03 
9.569945201736457e+03 
9.569945201736457e+03 
9.886410830755496e+03 
9.886410830755496e+03 
1.021602488410963e+04 
1.021602488410963e+04 
1.055561279159480e+04 
1.055561279159480e+04 
1.090190383813951e+04 
1.090190383813951e+04 
1.125156268823250e+04 
    </DataArray>
    <DataArray type="Float64" Name="phi_2" format="ascii">
-1.760627804297678e+05 
-1.760564251546467e+05 
-1.760564251546467e+05 
-1.760375149743730e+05 
-1.760375149743730e+05 
-1.760065071708747e+05 
-1.760065071708747e+05 
-1.759641329450765e+05 
-1.759641329450765e+05 
-1.759113550929788e+05 
-1.759113550929788e+05 
-1.758493160319117e+05 
-1.758493160319117e+05 
-1.757792816819874e+05 
-1.757792816819874e+05 
-1.757025863399986e+05 
-1.757025863399986e+05 
-1.756205826365592e+05 
-1.756205826365592e+05 
-1.755345992900557e+05 
-1.755345992900557e+05 
-1.754459079459009e+05 
-1.754459079459009e+05 
-1.753556992994091e+05 
-1.753556992994091e+05 
-1.752650674891816e+05 
-1.752650674891816e+05 
-1.751750025654676e+05 
-1.751750025654676e+05 
-1.750863857721275e+05 
-1.750863857721275e+05 
-1.750000000000000e+05 
    </DataArray>
    <DataArray type="Float64" Name="phiAnalytic_2" format="ascii">
-1.759452392158853e+05 
-1.759397045360905e+05 
-1.759397045360905e+05 
-1.759232271296398e+05 
-1.759232271296398e+05 
-1.758961796886622e+05 
-1.758961796886622e+05 
-1.758591601954261e+05 
-1.758591601954261e+05 
-1.758129599754244e+05 
-1.758129599754244e+05 
-1.757585240350990e+05 
-1.757585240350990e+05 
-1.756969076103368e+05 
-1.756969076103368e+05 
-1.756292327004462e+05 
-1.756292327004462e+05 
-1.755566477283407e+05 
-1.755566477283407e+05 
-1.754802925563092e+05 
-1.754802925563092e+05 
-1.754012701085968e+05 
-1.754012701085968e+05 
-1.753206249728556e+05 
-1.753206249728556e+05 
-1.752393286705778e+05 
-1.752393286705778e+05 
-1.751582708346490e+05 
-1.751582708346490e+05 
-1.750782552942233e+05 
-1.750782552942233e+05 
-1.750000000000000e+05 
    </DataArray>
  </PointData>
  <CellData>
    <DataArray type="Float64" Name="Owner" format="ascii">
0.000000000000000e+00 
0.000000000000000e+00 
0.000000000000000e+00 
0.000000000000000e+00 
0.000000000000000e+00 
0.000000000000000e+00 
0.000000000000000e+00 
0.000000000000000e+00 
0.000000000000000e+00 
0.000000000000000e+00 
0.000000000000000e+00 
0.000000000000000e+00 
0.000000000000000e+00 
0.000000000000000e+00 
0.000000000000000e+00 
0.000000000000000e+00 
0.000000000000000e+00 
0.000000000000000e+00 
0.000000000000000e+00 
0.000000000000000e+00 
0.000000000000000e+00 
0.000000000000000e+00 
0.000000000000000e+00 
0.000000000000000e+00 
0.000000000000000e+00 
0.000000000000000e+00 
0.000000000000000e+00 
0.000000000000000e+00 
0.000000000000000e+00 
0.000000000000000e+00 
0.000000000000000e+00 
0.000000000000000e+00 
    </DataArray>
  </CellData>
</Piece>
</UnstructuredGrid>
</VTKFile>
