<?xml version="1.0" ?> 
<!-- 
# vtk DataFile Version 3.0
-->
<VTKFile type="UnstructuredGrid" version="0.1" compressor="vtkZLibDataCompressor" byte_order="LittleEndian">
<UnstructuredGrid>
<FieldData>
<DataArray type="Float32" Name="TIME" NumberOfTuples="1" format="ascii">1041.66666667</DataArray>
</FieldData>
<Piece NumberOfPoints="32" NumberOfCells="16" >
  <Points>
    <DataArray type="Float64" NumberOfComponents="3" format="ascii">
0.000000000000000e+00 0.000000000000000e+00 0.000000000000000e+00 
6.250000000000000e-05 0.000000000000000e+00 0.000000000000000e+00 
6.250000000000000e-05 0.000000000000000e+00 0.000000000000000e+00 
1.250000000000000e-04 0.000000000000000e+00 0.000000000000000e+00 
1.250000000000000e-04 0.000000000000000e+00 0.000000000000000e+00 
1.875000000000000e-04 0.000000000000000e+00 0.000000000000000e+00 
1.875000000000000e-04 0.000000000000000e+00 0.000000000000000e+00 
2.500000000000000e-04 0.000000000000000e+00 0.000000000000000e+00 
2.500000000000000e-04 0.000000000000000e+00 0.000000000000000e+00 
3.125000000000000e-04 0.000000000000000e+00 0.000000000000000e+00 
3.125000000000000e-04 0.000000000000000e+00 0.000000000000000e+00 
3.750000000000000e-04 0.000000000000000e+00 0.000000000000000e+00 
3.750000000000000e-04 0.000000000000000e+00 0.000000000000000e+00 
4.375000000000000e-04 0.000000000000000e+00 0.000000000000000e+00 
4.375000000000000e-04 0.000000000000000e+00 0.000000000000000e+00 
5.000000000000000e-04 0.000000000000000e+00 0.000000000000000e+00 
5.000000000000000e-04 0.000000000000000e+00 0.000000000000000e+00 
5.625000000000001e-04 0.000000000000000e+00 0.000000000000000e+00 
5.625000000000001e-04 0.000000000000000e+00 0.000000000000000e+00 
6.250000000000000e-04 0.000000000000000e+00 0.000000000000000e+00 
6.250000000000000e-04 0.000000000000000e+00 0.000000000000000e+00 
6.875000000000000e-04 0.000000000000000e+00 0.000000000000000e+00 
6.875000000000000e-04 0.000000000000000e+00 0.000000000000000e+00 
7.500000000000000e-04 0.000000000000000e+00 0.000000000000000e+00 
7.500000000000000e-04 0.000000000000000e+00 0.000000000000000e+00 
8.125000000000001e-04 0.000000000000000e+00 0.000000000000000e+00 
8.125000000000001e-04 0.000000000000000e+00 0.000000000000000e+00 
8.750000000000000e-04 0.000000000000000e+00 0.000000000000000e+00 
8.750000000000000e-04 0.000000000000000e+00 0.000000000000000e+00 
9.375000000000000e-04 0.000000000000000e+00 0.000000000000000e+00 
9.375000000000000e-04 0.000000000000000e+00 0.000000000000000e+00 
1.000000000000000e-03 0.000000000000000e+00 0.000000000000000e+00 
    </DataArray>
  </Points>

  <Cells>
    <DataArray type="Int32" Name="connectivity" format="ascii">
0 1 2 3 4 5 6 7 8 9 10 11 12 13 14 15 16 17 18 19 20 21 22 23 24 25 26 27 28 29 30 31     </DataArray>
    <DataArray type="Int32" Name="offsets" format="ascii">
2 4 6 8 10 12 14 16 18 20 22 24 26 28 30 32     </DataArray>
    <DataArray type="UInt8" Name="types" format="ascii">
3 3 3 3 3 3 3 3 3 3 3 3 3 3 3 3     </DataArray>
  </Cells>

  <PointData>
    <DataArray type="Float64" Name="phi_1" format="ascii">
9.336223957917735e+03 
9.345441237995496e+03 
9.345441237995496e+03 
9.373004618446283e+03 
9.373004618446283e+03 
9.418649550998183e+03 
9.418649550998183e+03 
9.481937886151565e+03 
9.481937886151565e+03 
9.562261997246653e+03 
9.562261997246653e+03 
9.658850512099007e+03 
9.658850512099007e+03 
9.770775597903517e+03 
9.770775597903517e+03 
9.896961774022942e+03 
9.896961774022942e+03 
1.003619605099285e+04 
1.003619605099285e+04 
1.018713978602996e+04 
1.018713978602996e+04 
1.034834035072160e+04 
1.034834035072160e+04 
1.051824926233124e+04 
1.051824926233124e+04 
1.069522118856824e+04 
1.069522118856824e+04 
1.087758946437308e+04 
1.087758946437308e+04 
1.106345753489461e+04 
1.106345753489461e+04 
1.125156268823250e+04 
    </DataArray>
    <DataArray type="Float64" Name="phiAnalytic_1" format="ascii">
9.601624415635026e+03 
9.609569318728052e+03 
9.609569318728052e+03 
9.633327514304357e+03 
9.633327514304357e+03 
9.672670198119509e+03 
9.672670198119509e+03 
9.727218478882995e+03 
9.727218478882995e+03 
9.796447027165979e+03 
9.796447027165979e+03 
9.879689134582088e+03 
9.879689134582088e+03 
9.976143134521120e+03 
9.976143134521120e+03 
1.008488012260322e+04 
1.008488012260322e+04 
1.020485290250427e+04 
1.020485290250427e+04 
1.033490607100203e+04 
1.033490607100203e+04 
1.047378714512076e+04 
1.047378714512076e+04 
1.062015862421570e+04 
1.062015862421570e+04 
1.077261087083375e+04 
1.077261087083375e+04 
1.092967568630088e+04 
1.092967568630088e+04 
1.108984045029523e+04 
1.108984045029523e+04 
1.125156268823250e+04 
    </DataArray>
    <DataArray type="Float64" Name="phi_2" format="ascii">
-1.754625604551485e+05 
-1.754601136197809e+05 
-1.754601136197809e+05 
-1.754528110062964e+05 
-1.754528110062964e+05 
-1.754407651028089e+05 
-1.754407651028089e+05 
-1.754241595012434e+05 
-1.754241595012434e+05 
-1.754032433277387e+05 
-1.754032433277387e+05 
-1.753783239413219e+05 
-1.753783239413219e+05 
-1.753497583330593e+05 
-1.753497583330593e+05 
-1.753179437016309e+05 
-1.753179437016309e+05 
-1.752833076823547e+05 
-1.752833076823547e+05 
-1.752462986711890e+05 
-1.752462986711890e+05 
-1.752073766184219e+05 
-1.752073766184219e+05 
-1.751670045939300e+05 
-1.751670045939300e+05 
-1.751256413011235e+05 
-1.751256413011235e+05 
-1.750837347667065e+05 
-1.750837347667065e+05 
-1.750417168407357e+05 
-1.750417168407357e+05 
-1.750000000000000e+05 
    </DataArray>
    <DataArray type="Float64" Name="phiAnalytic_2" format="ascii">
-1.753930780707487e+05 
-1.753910278099550e+05 
-1.753910278099550e+05 
-1.753849068709497e+05 
-1.753849068709497e+05 
-1.753748039451606e+05 
-1.753748039451606e+05 
-1.753608641046982e+05 
-1.753608641046982e+05 
-1.753432848476767e+05 
-1.753432848476767e+05 
-1.753223108764512e+05 
-1.753223108764512e+05 
-1.752982278871554e+05 
-1.752982278871554e+05 
-1.752713556823637e+05 
-1.752713556823637e+05 
-1.752420409265778e+05 
-1.752420409265778e+05 
-1.752106498487364e+05 
-1.752106498487364e+05 
-1.751775611614855e+05 
-1.751775611614855e+05 
-1.751431594193343e+05 
-1.751431594193343e+05 
-1.751078289832023e+05 
-1.751078289832023e+05 
-1.750719487029187e+05 
-1.750719487029187e+05 
-1.750358873766221e+05 
-1.750358873766221e+05 
-1.750000000000000e+05 
    </DataArray>
  </PointData>
  <CellData>
    <DataArray type="Float64" Name="Owner" format="ascii">
0.000000000000000e+00 
0.000000000000000e+00 
0.000000000000000e+00 
0.000000000000000e+00 
0.000000000000000e+00 
0.000000000000000e+00 
0.000000000000000e+00 
0.000000000000000e+00 
0.000000000000000e+00 
0.000000000000000e+00 
0.000000000000000e+00 
0.000000000000000e+00 
0.000000000000000e+00 
0.000000000000000e+00 
0.000000000000000e+00 
0.000000000000000e+00 
0.000000000000000e+00 
0.000000000000000e+00 
0.000000000000000e+00 
0.000000000000000e+00 
0.000000000000000e+00 
0.000000000000000e+00 
0.000000000000000e+00 
0.000000000000000e+00 
0.000000000000000e+00 
0.000000000000000e+00 
0.000000000000000e+00 
0.000000000000000e+00 
0.000000000000000e+00 
0.000000000000000e+00 
0.000000000000000e+00 
0.000000000000000e+00 
    </DataArray>
  </CellData>
</Piece>
</UnstructuredGrid>
</VTKFile>
