<?xml version="1.0" ?> 
<!-- 
# vtk DataFile Version 3.0
-->
<VTKFile type="UnstructuredGrid" version="0.1" compressor="vtkZLibDataCompressor" byte_order="LittleEndian">
<UnstructuredGrid>
<FieldData>
<DataArray type="Float32" Name="TIME" NumberOfTuples="1" format="ascii">446.42857143</DataArray>
</FieldData>
<Piece NumberOfPoints="32" NumberOfCells="16" >
  <Points>
    <DataArray type="Float64" NumberOfComponents="3" format="ascii">
0.000000000000000e+00 0.000000000000000e+00 0.000000000000000e+00 
6.250000000000000e-05 0.000000000000000e+00 0.000000000000000e+00 
6.250000000000000e-05 0.000000000000000e+00 0.000000000000000e+00 
1.250000000000000e-04 0.000000000000000e+00 0.000000000000000e+00 
1.250000000000000e-04 0.000000000000000e+00 0.000000000000000e+00 
1.875000000000000e-04 0.000000000000000e+00 0.000000000000000e+00 
1.875000000000000e-04 0.000000000000000e+00 0.000000000000000e+00 
2.500000000000000e-04 0.000000000000000e+00 0.000000000000000e+00 
2.500000000000000e-04 0.000000000000000e+00 0.000000000000000e+00 
3.125000000000000e-04 0.000000000000000e+00 0.000000000000000e+00 
3.125000000000000e-04 0.000000000000000e+00 0.000000000000000e+00 
3.750000000000000e-04 0.000000000000000e+00 0.000000000000000e+00 
3.750000000000000e-04 0.000000000000000e+00 0.000000000000000e+00 
4.375000000000000e-04 0.000000000000000e+00 0.000000000000000e+00 
4.375000000000000e-04 0.000000000000000e+00 0.000000000000000e+00 
5.000000000000000e-04 0.000000000000000e+00 0.000000000000000e+00 
5.000000000000000e-04 0.000000000000000e+00 0.000000000000000e+00 
5.625000000000001e-04 0.000000000000000e+00 0.000000000000000e+00 
5.625000000000001e-04 0.000000000000000e+00 0.000000000000000e+00 
6.250000000000000e-04 0.000000000000000e+00 0.000000000000000e+00 
6.250000000000000e-04 0.000000000000000e+00 0.000000000000000e+00 
6.875000000000000e-04 0.000000000000000e+00 0.000000000000000e+00 
6.875000000000000e-04 0.000000000000000e+00 0.000000000000000e+00 
7.500000000000000e-04 0.000000000000000e+00 0.000000000000000e+00 
7.500000000000000e-04 0.000000000000000e+00 0.000000000000000e+00 
8.125000000000001e-04 0.000000000000000e+00 0.000000000000000e+00 
8.125000000000001e-04 0.000000000000000e+00 0.000000000000000e+00 
8.750000000000000e-04 0.000000000000000e+00 0.000000000000000e+00 
8.750000000000000e-04 0.000000000000000e+00 0.000000000000000e+00 
9.375000000000000e-04 0.000000000000000e+00 0.000000000000000e+00 
9.375000000000000e-04 0.000000000000000e+00 0.000000000000000e+00 
1.000000000000000e-03 0.000000000000000e+00 0.000000000000000e+00 
    </DataArray>
  </Points>

  <Cells>
    <DataArray type="Int32" Name="connectivity" format="ascii">
0 1 2 3 4 5 6 7 8 9 10 11 12 13 14 15 16 17 18 19 20 21 22 23 24 25 26 27 28 29 30 31     </DataArray>
    <DataArray type="Int32" Name="offsets" format="ascii">
2 4 6 8 10 12 14 16 18 20 22 24 26 28 30 32     </DataArray>
    <DataArray type="UInt8" Name="types" format="ascii">
3 3 3 3 3 3 3 3 3 3 3 3 3 3 3 3     </DataArray>
  </Cells>

  <PointData>
    <DataArray type="Float64" Name="phi_1" format="ascii">
5.240610193338243e+03 
5.268550433978076e+03 
5.268550433978076e+03 
5.352184904650670e+03 
5.352184904650670e+03 
5.490949844138669e+03 
5.490949844138669e+03 
5.683889619730851e+03 
5.683889619730851e+03 
5.929634865497080e+03 
5.929634865497080e+03 
6.226375904674728e+03 
6.226375904674728e+03 
6.571834723848271e+03 
6.571834723848271e+03 
6.963239430175859e+03 
6.963239430175859e+03 
7.397303926156851e+03 
7.397303926156851e+03 
7.870220670388029e+03 
7.870220670388029e+03 
8.377654456748307e+03 
8.377654456748307e+03 
8.914800681013374e+03 
8.914800681013374e+03 
9.476278023518731e+03 
9.476278023518731e+03 
1.005675161681523e+04 
1.005675161681523e+04 
1.064884044934666e+04 
1.064884044934666e+04 
1.125156268823250e+04 
    </DataArray>
    <DataArray type="Float64" Name="phiAnalytic_1" format="ascii">
5.586969308879824e+03 
5.614201822132851e+03 
5.614201822132851e+03 
5.695640891640517e+03 
5.695640891640517e+03 
5.830513269145265e+03 
5.830513269145265e+03 
6.017537423183466e+03 
6.017537423183466e+03 
6.254934385625627e+03 
6.254934385625627e+03 
6.540442974272657e+03 
6.540442974272657e+03 
6.871339409379302e+03 
6.871339409379302e+03 
7.244461321195041e+03 
7.244461321195041e+03 
7.656236108841082e+03 
7.656236108841082e+03 
8.102713557958816e+03 
8.102713557958816e+03 
8.579602557024653e+03 
8.579602557024653e+03 
9.082311672963378e+03 
9.082311672963378e+03 
9.605993259896884e+03 
9.605993259896884e+03 
1.014559068564744e+04 
1.014559068564744e+04 
1.069588817458641e+04 
1.069588817458641e+04 
1.125156268823250e+04 
    </DataArray>
    <DataArray type="Float64" Name="phi_2" format="ascii">
-1.768939909697349e+05 
-1.768807869613025e+05 
-1.768807869613025e+05 
-1.768416800741816e+05 
-1.768416800741816e+05 
-1.767781313242109e+05 
-1.767781313242109e+05 
-1.766924065455798e+05 
-1.766924065455798e+05 
-1.765873606078922e+05 
-1.765873606078922e+05 
-1.764661976204991e+05 
-1.764661976204991e+05 
-1.763322444953005e+05 
-1.763322444953005e+05 
-1.761887636527288e+05 
-1.761887636527288e+05 
-1.760388165909931e+05 
-1.760388165909931e+05 
-1.758851782133688e+05 
-1.758851782133688e+05 
-1.757302942120667e+05 
-1.757302942120667e+05 
-1.755762711195222e+05 
-1.755762711195222e+05 
-1.754248870838552e+05 
-1.754248870838552e+05 
-1.752776188597385e+05 
-1.752776188597385e+05 
-1.751356627202372e+05 
-1.751356627202372e+05 
-1.750000000000000e+05 
    </DataArray>
    <DataArray type="Float64" Name="phiAnalytic_2" format="ascii">
-1.767353470050120e+05 
-1.767232938712448e+05 
-1.767232938712448e+05 
-1.766875946638795e+05 
-1.766875946638795e+05 
-1.766295806062971e+05 
-1.766295806062971e+05 
-1.765513166676125e+05 
-1.765513166676125e+05 
-1.764554048499183e+05 
-1.764554048499183e+05 
-1.763447646376191e+05 
-1.763447646376191e+05 
-1.762224246131570e+05 
-1.762224246131570e+05 
-1.760913491978661e+05 
-1.760913491978661e+05 
-1.759543119668723e+05 
-1.759543119668723e+05 
-1.758138161705638e+05 
-1.758138161705638e+05 
-1.756720560319325e+05 
-1.756720560319325e+05 
-1.755309091985786e+05 
-1.755309091985786e+05 
-1.753919504374346e+05 
-1.753919504374346e+05 
-1.752564780300904e+05 
-1.752564780300904e+05 
-1.751255463368100e+05 
-1.751255463368100e+05 
-1.750000000000000e+05 
    </DataArray>
  </PointData>
  <CellData>
    <DataArray type="Float64" Name="Owner" format="ascii">
0.000000000000000e+00 
0.000000000000000e+00 
0.000000000000000e+00 
0.000000000000000e+00 
0.000000000000000e+00 
0.000000000000000e+00 
0.000000000000000e+00 
0.000000000000000e+00 
0.000000000000000e+00 
0.000000000000000e+00 
0.000000000000000e+00 
0.000000000000000e+00 
0.000000000000000e+00 
0.000000000000000e+00 
0.000000000000000e+00 
0.000000000000000e+00 
0.000000000000000e+00 
0.000000000000000e+00 
0.000000000000000e+00 
0.000000000000000e+00 
0.000000000000000e+00 
0.000000000000000e+00 
0.000000000000000e+00 
0.000000000000000e+00 
0.000000000000000e+00 
0.000000000000000e+00 
0.000000000000000e+00 
0.000000000000000e+00 
0.000000000000000e+00 
0.000000000000000e+00 
0.000000000000000e+00 
0.000000000000000e+00 
    </DataArray>
  </CellData>
</Piece>
</UnstructuredGrid>
</VTKFile>
