<?xml version="1.0" ?> 
<!-- 
# vtk DataFile Version 3.0
-->
<VTKFile type="UnstructuredGrid" version="0.1" compressor="vtkZLibDataCompressor" byte_order="LittleEndian">
<UnstructuredGrid>
<FieldData>
<DataArray type="Float32" Name="TIME" NumberOfTuples="1" format="ascii">892.85714286</DataArray>
</FieldData>
<Piece NumberOfPoints="32" NumberOfCells="16" >
  <Points>
    <DataArray type="Float64" NumberOfComponents="3" format="ascii">
0.000000000000000e+00 0.000000000000000e+00 0.000000000000000e+00 
6.250000000000000e-05 0.000000000000000e+00 0.000000000000000e+00 
6.250000000000000e-05 0.000000000000000e+00 0.000000000000000e+00 
1.250000000000000e-04 0.000000000000000e+00 0.000000000000000e+00 
1.250000000000000e-04 0.000000000000000e+00 0.000000000000000e+00 
1.875000000000000e-04 0.000000000000000e+00 0.000000000000000e+00 
1.875000000000000e-04 0.000000000000000e+00 0.000000000000000e+00 
2.500000000000000e-04 0.000000000000000e+00 0.000000000000000e+00 
2.500000000000000e-04 0.000000000000000e+00 0.000000000000000e+00 
3.125000000000000e-04 0.000000000000000e+00 0.000000000000000e+00 
3.125000000000000e-04 0.000000000000000e+00 0.000000000000000e+00 
3.750000000000000e-04 0.000000000000000e+00 0.000000000000000e+00 
3.750000000000000e-04 0.000000000000000e+00 0.000000000000000e+00 
4.375000000000000e-04 0.000000000000000e+00 0.000000000000000e+00 
4.375000000000000e-04 0.000000000000000e+00 0.000000000000000e+00 
5.000000000000000e-04 0.000000000000000e+00 0.000000000000000e+00 
5.000000000000000e-04 0.000000000000000e+00 0.000000000000000e+00 
5.625000000000001e-04 0.000000000000000e+00 0.000000000000000e+00 
5.625000000000001e-04 0.000000000000000e+00 0.000000000000000e+00 
6.250000000000000e-04 0.000000000000000e+00 0.000000000000000e+00 
6.250000000000000e-04 0.000000000000000e+00 0.000000000000000e+00 
6.875000000000000e-04 0.000000000000000e+00 0.000000000000000e+00 
6.875000000000000e-04 0.000000000000000e+00 0.000000000000000e+00 
7.500000000000000e-04 0.000000000000000e+00 0.000000000000000e+00 
7.500000000000000e-04 0.000000000000000e+00 0.000000000000000e+00 
8.125000000000001e-04 0.000000000000000e+00 0.000000000000000e+00 
8.125000000000001e-04 0.000000000000000e+00 0.000000000000000e+00 
8.750000000000000e-04 0.000000000000000e+00 0.000000000000000e+00 
8.750000000000000e-04 0.000000000000000e+00 0.000000000000000e+00 
9.375000000000000e-04 0.000000000000000e+00 0.000000000000000e+00 
9.375000000000000e-04 0.000000000000000e+00 0.000000000000000e+00 
1.000000000000000e-03 0.000000000000000e+00 0.000000000000000e+00 
    </DataArray>
  </Points>

  <Cells>
    <DataArray type="Int32" Name="connectivity" format="ascii">
0 1 2 3 4 5 6 7 8 9 10 11 12 13 14 15 16 17 18 19 20 21 22 23 24 25 26 27 28 29 30 31     </DataArray>
    <DataArray type="Int32" Name="offsets" format="ascii">
2 4 6 8 10 12 14 16 18 20 22 24 26 28 30 32     </DataArray>
    <DataArray type="UInt8" Name="types" format="ascii">
3 3 3 3 3 3 3 3 3 3 3 3 3 3 3 3     </DataArray>
  </Cells>

  <PointData>
    <DataArray type="Float64" Name="phi_1" format="ascii">
8.699627998256641e+03 
8.711902232129425e+03 
8.711902232129425e+03 
8.748607638053949e+03 
8.748607638053949e+03 
8.809393387146354e+03 
8.809393387146354e+03 
8.893678289001646e+03 
8.893678289001646e+03 
9.000656064935434e+03 
9.000656064935434e+03 
9.129302706343135e+03 
9.129302706343135e+03 
9.278385868624886e+03 
9.278385868624886e+03 
9.446476308343148e+03 
9.446476308343148e+03 
9.631961071078298e+03 
9.631961071078298e+03 
9.833059166198798e+03 
9.833059166198798e+03 
1.004783647644679e+04 
1.004783647644679e+04 
1.027423156483635e+04 
1.027423156483635e+04 
1.051004766922462e+04 
1.051004766922462e+04 
1.075307876236261e+04 
1.075307876236261e+04 
1.100073509165995e+04 
1.100073509165995e+04 
1.125156268823250e+04 
    </DataArray>
    <DataArray type="Float64" Name="phiAnalytic_1" format="ascii">
9.005535636337689e+03 
9.016350859843227e+03 
9.016350859843227e+03 
9.048692374762530e+03 
9.048692374762530e+03 
9.102248717300032e+03 
9.102248717300032e+03 
9.176504114798325e+03 
9.176504114798325e+03 
9.270743452549288e+03 
9.270743452549288e+03 
9.384059160277864e+03 
9.384059160277864e+03 
9.515359952017723e+03 
9.515359952017723e+03 
9.663381335253958e+03 
9.663381335253958e+03 
9.826697788170375e+03 
9.826697788170375e+03 
1.000373648777142e+04 
1.000373648777142e+04 
1.019279245670674e+04 
1.019279245670674e+04 
1.039204498295371e+04 
1.039204498295371e+04 
1.059957515424313e+04 
1.059957515424313e+04 
1.081338433836413e+04 
1.081338433836413e+04 
1.103141343136176e+04 
1.103141343136176e+04 
1.125156268823250e+04 
    </DataArray>
    <DataArray type="Float64" Name="phi_2" format="ascii">
-1.756376187387182e+05 
-1.756341222173088e+05 
-1.756341222173088e+05 
-1.756236954720359e+05 
-1.756236954720359e+05 
-1.756065244441755e+05 
-1.756065244441755e+05 
-1.755829108603104e+05 
-1.755829108603104e+05 
-1.755532606735973e+05 
-1.755532606735973e+05 
-1.755180691905491e+05 
-1.755180691905491e+05 
-1.754779039796433e+05 
-1.754779039796433e+05 
-1.754333867156301e+05 
-1.754333867156301e+05 
-1.753851750483453e+05 
-1.753851750483453e+05 
-1.753339454263997e+05 
-1.753339454263997e+05 
-1.752803775812896e+05 
-1.752803775812896e+05 
-1.752251411599209e+05 
-1.752251411599209e+05 
-1.751688846742218e+05 
-1.751688846742218e+05 
-1.751122270729329e+05 
-1.751122270729329e+05 
-1.750557508338075e+05 
-1.750557508338075e+05 
-1.750000000000000e+05 
    </DataArray>
    <DataArray type="Float64" Name="phiAnalytic_2" format="ascii">
-1.755519526147151e+05 
-1.755489774560578e+05 
-1.755489774560578e+05 
-1.755401018780131e+05 
-1.755401018780131e+05 
-1.755254737802852e+05 
-1.755254737802852e+05 
-1.755053338164876e+05 
-1.755053338164876e+05 
-1.754800070785313e+05 
-1.754800070785313e+05 
-1.754498923031277e+05 
-1.754498923031277e+05 
-1.754154493242215e+05 
-1.754154493242215e+05 
-1.753771855495352e+05 
-1.753771855495352e+05 
-1.753356422170715e+05 
-1.753356422170715e+05 
-1.752913811017043e+05 
-1.752913811017043e+05 
-1.752449722126507e+05 
-1.752449722126507e+05 
-1.751969828714054e+05 
-1.751969828714054e+05 
-1.751479684065769e+05 
-1.751479684065769e+05 
-1.750984645624924e+05 
-1.750984645624924e+05 
-1.750489816024778e+05 
-1.750489816024778e+05 
-1.750000000000000e+05 
    </DataArray>
  </PointData>
  <CellData>
    <DataArray type="Float64" Name="Owner" format="ascii">
0.000000000000000e+00 
0.000000000000000e+00 
0.000000000000000e+00 
0.000000000000000e+00 
0.000000000000000e+00 
0.000000000000000e+00 
0.000000000000000e+00 
0.000000000000000e+00 
0.000000000000000e+00 
0.000000000000000e+00 
0.000000000000000e+00 
0.000000000000000e+00 
0.000000000000000e+00 
0.000000000000000e+00 
0.000000000000000e+00 
0.000000000000000e+00 
0.000000000000000e+00 
0.000000000000000e+00 
0.000000000000000e+00 
0.000000000000000e+00 
0.000000000000000e+00 
0.000000000000000e+00 
0.000000000000000e+00 
0.000000000000000e+00 
0.000000000000000e+00 
0.000000000000000e+00 
0.000000000000000e+00 
0.000000000000000e+00 
0.000000000000000e+00 
0.000000000000000e+00 
0.000000000000000e+00 
0.000000000000000e+00 
    </DataArray>
  </CellData>
</Piece>
</UnstructuredGrid>
</VTKFile>
