<?xml version="1.0" ?> 
<!-- 
# vtk DataFile Version 3.0
-->
<VTKFile type="UnstructuredGrid" version="0.1" compressor="vtkZLibDataCompressor" byte_order="LittleEndian">
<UnstructuredGrid>
<FieldData>
<DataArray type="Float32" Name="TIME" NumberOfTuples="1" format="ascii">1116.071428575</DataArray>
</FieldData>
<Piece NumberOfPoints="32" NumberOfCells="16" >
  <Points>
    <DataArray type="Float64" NumberOfComponents="3" format="ascii">
0.000000000000000e+00 0.000000000000000e+00 0.000000000000000e+00 
6.250000000000000e-05 0.000000000000000e+00 0.000000000000000e+00 
6.250000000000000e-05 0.000000000000000e+00 0.000000000000000e+00 
1.250000000000000e-04 0.000000000000000e+00 0.000000000000000e+00 
1.250000000000000e-04 0.000000000000000e+00 0.000000000000000e+00 
1.875000000000000e-04 0.000000000000000e+00 0.000000000000000e+00 
1.875000000000000e-04 0.000000000000000e+00 0.000000000000000e+00 
2.500000000000000e-04 0.000000000000000e+00 0.000000000000000e+00 
2.500000000000000e-04 0.000000000000000e+00 0.000000000000000e+00 
3.125000000000000e-04 0.000000000000000e+00 0.000000000000000e+00 
3.125000000000000e-04 0.000000000000000e+00 0.000000000000000e+00 
3.750000000000000e-04 0.000000000000000e+00 0.000000000000000e+00 
3.750000000000000e-04 0.000000000000000e+00 0.000000000000000e+00 
4.375000000000000e-04 0.000000000000000e+00 0.000000000000000e+00 
4.375000000000000e-04 0.000000000000000e+00 0.000000000000000e+00 
5.000000000000000e-04 0.000000000000000e+00 0.000000000000000e+00 
5.000000000000000e-04 0.000000000000000e+00 0.000000000000000e+00 
5.625000000000001e-04 0.000000000000000e+00 0.000000000000000e+00 
5.625000000000001e-04 0.000000000000000e+00 0.000000000000000e+00 
6.250000000000000e-04 0.000000000000000e+00 0.000000000000000e+00 
6.250000000000000e-04 0.000000000000000e+00 0.000000000000000e+00 
6.875000000000000e-04 0.000000000000000e+00 0.000000000000000e+00 
6.875000000000000e-04 0.000000000000000e+00 0.000000000000000e+00 
7.500000000000000e-04 0.000000000000000e+00 0.000000000000000e+00 
7.500000000000000e-04 0.000000000000000e+00 0.000000000000000e+00 
8.125000000000001e-04 0.000000000000000e+00 0.000000000000000e+00 
8.125000000000001e-04 0.000000000000000e+00 0.000000000000000e+00 
8.750000000000000e-04 0.000000000000000e+00 0.000000000000000e+00 
8.750000000000000e-04 0.000000000000000e+00 0.000000000000000e+00 
9.375000000000000e-04 0.000000000000000e+00 0.000000000000000e+00 
9.375000000000000e-04 0.000000000000000e+00 0.000000000000000e+00 
1.000000000000000e-03 0.000000000000000e+00 0.000000000000000e+00 
    </DataArray>
  </Points>

  <Cells>
    <DataArray type="Int32" Name="connectivity" format="ascii">
0 1 2 3 4 5 6 7 8 9 10 11 12 13 14 15 16 17 18 19 20 21 22 23 24 25 26 27 28 29 30 31     </DataArray>
    <DataArray type="Int32" Name="offsets" format="ascii">
2 4 6 8 10 12 14 16 18 20 22 24 26 28 30 32     </DataArray>
    <DataArray type="UInt8" Name="types" format="ascii">
3 3 3 3 3 3 3 3 3 3 3 3 3 3 3 3     </DataArray>
  </Cells>

  <PointData>
    <DataArray type="Float64" Name="phi_1" format="ascii">
9.592262586871515e+03 
9.600248756219073e+03 
9.600248756219073e+03 
9.624130548856696e+03 
9.624130548856696e+03 
9.663678545109480e+03 
9.663678545109480e+03 
9.718512794813963e+03 
9.718512794813963e+03 
9.788106419799627e+03 
9.788106419799627e+03 
9.871790616670536e+03 
9.871790616670536e+03 
9.968761010391274e+03 
9.968761010391274e+03 
1.007808532934269e+04 
1.007808532934269e+04 
1.019871223741402e+04 
1.019871223741402e+04 
1.032948160592102e+04 
1.032948160592102e+04 
1.046913477089498e+04 
1.046913477089498e+04 
1.061632978784429e+04 
1.061632978784429e+04 
1.076964235131130e+04 
1.076964235131130e+04 
1.092762447537632e+04 
1.092762447537632e+04 
1.108864935420498e+04 
1.108864935420498e+04 
1.125156268823250e+04 
    </DataArray>
    <DataArray type="Float64" Name="phiAnalytic_1" format="ascii">
9.837417395270233e+03 
9.844226891215456e+03 
9.844226891215456e+03 
9.864589799896987e+03 
9.864589799896987e+03 
9.898310015414289e+03 
9.898310015414289e+03 
9.945062793723859e+03 
9.945062793723859e+03 
1.000439788009629e+04 
1.000439788009629e+04 
1.007574384530823e+04 
1.007574384530823e+04 
1.015841358881012e+04 
1.015841358881012e+04 
1.025161095587167e+04 
1.025161095587167e+04 
1.035443840497929e+04 
1.035443840497929e+04 
1.046590565164477e+04 
1.046590565164477e+04 
1.058493920538129e+04 
1.058493920538129e+04 
1.071039270800076e+04 
1.071039270800076e+04 
1.084105797366949e+04 
1.084105797366949e+04 
1.097567662440020e+04 
1.097567662440020e+04 
1.111295220892431e+04 
1.111295220892431e+04 
1.125156268823250e+04 
    </DataArray>
    <DataArray type="Float64" Name="phi_2" format="ascii">
-1.753954962091450e+05 
-1.753934327213382e+05 
-1.753934327213382e+05 
-1.753872723308551e+05 
-1.753872723308551e+05 
-1.753771044098704e+05 
-1.753771044098704e+05 
-1.753630751391419e+05 
-1.753630751391419e+05 
-1.753453835162077e+05 
-1.753453835162077e+05 
-1.753242760850008e+05 
-1.753242760850008e+05 
-1.753000406681878e+05 
-1.753000406681878e+05 
-1.752729994173047e+05 
-1.752729994173047e+05 
-1.752435015035668e+05 
-1.752435015035668e+05 
-1.752119157568700e+05 
-1.752119157568700e+05 
-1.751786235241180e+05 
-1.751786235241180e+05 
-1.751440119757418e+05 
-1.751440119757418e+05 
-1.751084680111873e+05 
-1.751084680111873e+05 
-1.750723729452048e+05 
-1.750723729452048e+05 
-1.750360977721638e+05 
-1.750360977721638e+05 
-1.750000000000000e+05 
    </DataArray>
    <DataArray type="Float64" Name="phiAnalytic_2" format="ascii">
-1.753329396322658e+05 
-1.753312243782923e+05 
-1.753312243782923e+05 
-1.753261022052341e+05 
-1.753261022052341e+05 
-1.753176432851186e+05 
-1.753176432851186e+05 
-1.753059626202022e+05 
-1.753059626202022e+05 
-1.752912172211648e+05 
-1.752912172211648e+05 
-1.752736023568960e+05 
-1.752736023568960e+05 
-1.752533470554242e+05 
-1.752533470554242e+05 
-1.752307090601887e+05 
-1.752307090601887e+05 
-1.752059694552159e+05 
-1.752059694552159e+05 
-1.751794271676086e+05 
-1.751794271676086e+05 
-1.751513935382312e+05 
-1.751513935382312e+05 
-1.751221871246083e+05 
-1.751221871246083e+05 
-1.750921288672926e+05 
-1.750921288672926e+05 
-1.750615377156877e+05 
-1.750615377156877e+05 
-1.750307267745037e+05 
-1.750307267745037e+05 
-1.750000000000000e+05 
    </DataArray>
  </PointData>
  <CellData>
    <DataArray type="Float64" Name="Owner" format="ascii">
0.000000000000000e+00 
0.000000000000000e+00 
0.000000000000000e+00 
0.000000000000000e+00 
0.000000000000000e+00 
0.000000000000000e+00 
0.000000000000000e+00 
0.000000000000000e+00 
0.000000000000000e+00 
0.000000000000000e+00 
0.000000000000000e+00 
0.000000000000000e+00 
0.000000000000000e+00 
0.000000000000000e+00 
0.000000000000000e+00 
0.000000000000000e+00 
0.000000000000000e+00 
0.000000000000000e+00 
0.000000000000000e+00 
0.000000000000000e+00 
0.000000000000000e+00 
0.000000000000000e+00 
0.000000000000000e+00 
0.000000000000000e+00 
0.000000000000000e+00 
0.000000000000000e+00 
0.000000000000000e+00 
0.000000000000000e+00 
0.000000000000000e+00 
0.000000000000000e+00 
0.000000000000000e+00 
0.000000000000000e+00 
    </DataArray>
  </CellData>
</Piece>
</UnstructuredGrid>
</VTKFile>
